  -10.0000000       0.00000000    
  -9.94999981       0.00000000    
  -9.89999962       0.00000000    
  -9.85000038       0.00000000    
  -9.80000019       0.00000000    
  -9.75000000       0.00000000    
  -9.69999981       0.00000000    
  -9.64999962       0.00000000    
  -9.60000038       0.00000000    
  -9.55000019      -4.90627391E-32
  -9.50000000      -1.20150148E-29
  -9.44999981      -1.50902160E-28
  -9.39999962      -9.87786743E-28
  -9.35000038      -4.66510653E-27
  -9.30000019      -1.91452474E-26
  -9.25000000      -7.50328933E-26
  -9.19999981      -2.77051771E-25
  -9.14999962      -9.06274469E-25
  -9.10000038      -2.49330237E-24
  -9.05000019      -5.52709516E-24
  -9.00000000      -9.19868140E-24
  -8.94999981      -8.99020834E-24
  -8.89999962       4.85983440E-24
  -8.85000038       4.17558371E-23
  -8.80000019       8.91502501E-23
  -8.75000000       7.47524846E-23
  -8.69999981      -1.56476127E-22
  -8.64999962      -7.69624513E-22
  -8.60000038      -1.66613320E-21
  -8.55000019      -1.99978123E-21
  -8.50000000       2.14333407E-22
  -8.44999981       7.60707361E-21
  -8.39999962       2.09921573E-20
  -8.35000038       3.44910405E-20
  -8.30000019       3.01781822E-20
  -8.25000000      -2.18153522E-20
  -8.19999981      -1.48386638E-19
  -8.14999962      -3.36460057E-19
  -8.10000038      -4.80123700E-19
  -8.05000019      -3.44953702E-19
  -8.00000000       3.86741575E-19
  -7.94999981       1.91754549E-18
  -7.90000010       3.96271295E-18
  -7.84999990       5.32251061E-18
  -7.80000019       3.72380003E-18
  -7.75000000      -3.57660241E-18
  -7.69999981      -1.79982606E-17
  -7.65000010      -3.67311272E-17
  -7.59999990      -4.98135940E-17
  -7.55000019      -3.95453379E-17
  -7.50000000       1.46736249E-17
  -7.44999981       1.23864354E-16
  -7.40000010       2.70589254E-16
  -7.34999990       3.90886276E-16
  -7.30000019       3.70793093E-16
  -7.25000000       7.42590410E-17
  -7.19999981      -5.86587680E-16
  -7.15000010      -1.54637437E-15
  -7.09999990      -2.48394063E-15
  -7.05000019      -2.79055004E-15
  -7.00000000      -1.69017632E-15
  -6.94999981       1.43415934E-15
  -6.90000010       6.53642874E-15
  -6.84999990       1.23836911E-14
  -6.80000019       1.63033005E-14
  -6.75000000       1.45539200E-14
  -6.69999981       3.57586140E-15
  -6.65000010      -1.79345505E-14
  -6.59999990      -4.66766552E-14
  -6.55000019      -7.31984460E-14
  -6.50000000      -8.25138772E-14
  -6.44999981      -5.79905793E-14
  -6.40000010       1.13883241E-14
  -6.34999990       1.21957295E-13
  -6.30000019       2.47933835E-13
  -6.25000000       3.40271377E-13
  -6.19999981       3.36031116E-13
  -6.15000010       1.79743427E-13
  -6.09999990      -1.46764464E-13
  -6.05000019      -5.95544556E-13
  -6.00000000      -1.03867360E-12
  -5.94999981      -1.28346530E-12
  -5.90000010      -1.12439203E-12
  -5.84999990      -4.26179193E-13
  -5.80000019       7.84316080E-13
  -5.75000000       2.25421049E-12
  -5.69999981       3.50949955E-12
  -5.65000010       3.95687779E-12
  -5.59999990       3.07965090E-12
  -5.55000019       6.82166780E-13
  -5.50000000      -2.90285677E-12
  -5.44999981      -6.74774559E-12
  -5.40000010      -9.48664758E-12
  -5.34999990      -9.71231862E-12
  -5.30000019      -6.53091643E-12
  -5.25000000      -9.35802271E-14
  -5.19999981       8.13169237E-12
  -5.15000010       1.55542072E-11
  -5.09999990       1.91935877E-11
  -5.05000019       1.68102095E-11
  -5.00000000       8.06453428E-12
  -4.94999981      -4.80390554E-12
  -4.90000010      -1.72457812E-11
  -4.84999990      -2.38161938E-11
  -4.80000019      -2.04702019E-11
  -4.75000000      -6.96904123E-12
  -4.69999981       1.17098284E-11
  -4.65000010       2.60118940E-11
  -4.59999990       2.49806842E-11
  -4.55000019       1.44341386E-12
  -4.50000000      -4.24801687E-11
  -4.44999981      -9.20694077E-11
  -4.40000010      -1.21421234E-10
  -4.34999990      -1.00967061E-10
  -4.30000019      -1.02193956E-11
  -4.25000000       1.47863666E-10
  -4.19999981       3.36731115E-10
  -4.15000010       4.86670204E-10
  -4.09999990       5.10132270E-10
  -4.05000019       3.31561500E-10
  -4.00000000      -7.50154244E-11
  -3.95000005      -6.53305243E-10
  -3.90000010      -1.25248545E-09
  -3.84999990      -1.64837910E-09
  -3.79999995      -1.60234770E-09
  -3.75000000      -9.48597423E-10
  -3.70000005       3.14045318E-10
  -3.65000010       1.96002348E-09
  -3.59999990       3.53897578E-09
  -3.54999995       4.46298332E-09
  -3.50000000       4.17486135E-09
  -3.45000005       2.36109243E-09
  -3.40000010      -8.55336968E-10
  -3.34999990      -4.81958295E-09
  -3.29999995      -8.41188275E-09
  -3.25000000      -1.03011715E-08
  -3.20000005      -9.34859656E-09
  -3.15000010      -5.05914199E-09
  -3.09999990       2.06629891E-09
  -3.04999995       1.04306661E-08
  -3.00000000       1.75952763E-08
  -2.95000005       2.08927720E-08
  -2.90000010       1.82758431E-08
  -2.84999990       9.16494791E-09
  -2.79999995      -4.99985564E-09
  -2.75000000      -2.07653841E-08
  -2.70000005      -3.33594201E-08
  -2.65000010      -3.79921126E-08
  -2.59999990      -3.14549666E-08
  -2.54999995      -1.35353533E-08
  -2.50000000       1.22773169E-08
  -2.45000005       3.91855544E-08
  -2.40000010       5.86733826E-08
  -2.34999990       6.29956602E-08
  -2.29999995       4.79024145E-08
  -2.25000000       1.47202712E-08
  -2.20000005      -2.90387270E-08
  -2.15000010      -7.10270101E-08
  -2.09999990      -9.72794112E-08
  -2.04999995      -9.65548637E-08
  -2.00000000      -6.45389022E-08
  -1.95000005      -6.46465859E-09
  -1.89999998       6.30065102E-08
  -1.85000002       1.23074116E-07
  -1.79999995       1.52683867E-07
  -1.75000000       1.37458244E-07
  -1.70000005       7.55112808E-08
  -1.64999998      -1.99875245E-08
  -1.60000002      -1.22875207E-07
  -1.54999995      -2.00708513E-07
  -1.50000000      -2.24582166E-07
  -1.45000005      -1.79218290E-07
  -1.39999998      -6.99740141E-08
  -1.35000002       7.60406493E-08
  -1.29999995       2.15959020E-07
  -1.25000000       3.03260151E-07
  -1.20000005       3.02755410E-07
  -1.14999998       2.03805840E-07
  -1.10000002       2.70675020E-08
  -1.04999995      -1.78389172E-07
  -1.00000000      -3.47901164E-07
 -0.949999988      -4.20954763E-07
 -0.899999976      -3.62067169E-07
 -0.850000024      -1.75870582E-07
 -0.800000012       8.94794496E-08
 -0.750000000       3.53241745E-07
 -0.699999988       5.25495807E-07
 -0.649999976       5.36638083E-07
 -0.600000024       3.63681522E-07
 -0.550000012       4.39627073E-08
 -0.500000000      -3.30045253E-07
 -0.449999988      -6.35462811E-07
 -0.400000006      -7.57324983E-07
 -0.349999994      -6.29123974E-07
 -0.300000012      -2.61984496E-07
 -0.250000000       2.48976562E-07
 -0.200000003       7.46228409E-07
 -0.150000006       1.05558104E-06
 -0.100000001       1.04363016E-06
  -5.00000007E-02   6.68823134E-07
   5.55111512E-16   7.94272026E-09
   5.00000007E-02  -7.54160226E-07
  0.100000001      -1.37283462E-06
  0.150000006      -1.61843707E-06
  0.200000003      -1.35580660E-06
  0.250000000      -6.02216346E-07
  0.300000012       4.58407357E-07
  0.349999994       1.51526683E-06
  0.400000006       2.21790651E-06
  0.449999988       2.28761724E-06
  0.500000000       1.61889068E-06
  0.550000012       3.35990052E-07
  0.600000024      -1.21954758E-06
  0.649999976      -2.57461670E-06
  0.699999988      -3.26383815E-06
  0.750000000      -2.98284658E-06
  0.800000012      -1.70679630E-06
  0.850000024       2.68809259E-07
  0.899999976       2.38718644E-06
  0.949999988       3.98120619E-06
   1.00000000       4.47721459E-06
   1.04999995       3.59122464E-06
   1.10000002       1.45288072E-06
   1.14999998      -1.39081396E-06
   1.20000005      -4.10608845E-06
   1.25000000      -5.80932829E-06
   1.29999995      -5.84505824E-06
   1.35000002      -4.01977695E-06
   1.39999998      -7.12032715E-07
   1.45000005       3.18898697E-06
   1.50000000       6.51374876E-06
   1.54999995       8.15458043E-06
   1.60000002       7.42157181E-06
   1.64999998       4.30037153E-06
   1.70000005      -4.79033019E-07
   1.75000000      -5.60158287E-06
   1.79999995      -9.52454411E-06
   1.85000002      -1.09376697E-05
   1.89999998      -9.18999649E-06
   1.95000005      -4.54625069E-06
   2.00000000       1.82165718E-06
   2.04999995       8.12653343E-06
   2.09999990       1.24717153E-05
   2.15000010       1.34284064E-05
   2.20000005       1.05087411E-05
   2.25000000       4.37852896E-06
   2.29999995      -3.27566931E-06
   2.34999990      -1.02074673E-05
   2.40000010      -1.42769823E-05
   2.45000005      -1.41263363E-05
   2.50000000      -9.65147683E-06
   2.54999995      -2.10731127E-06
   2.59999990       6.21169966E-06
   2.65000010       1.26423702E-05
   2.70000005       1.49850830E-05
   2.75000000       1.22430183E-05
   2.79999995       5.02579451E-06
   2.84999990      -4.53493249E-06
   2.90000010      -1.33654294E-05
   2.95000005      -1.83755583E-05
   3.00000000      -1.74595625E-05
   3.04999995      -1.02583817E-05
   3.09999990       1.57658349E-06
   3.15000010       1.47384626E-05
   3.20000005       2.51714937E-05
   3.25000000       2.92830955E-05
   3.29999995       2.51022211E-05
   3.34999990       1.30175540E-05
   3.40000010      -4.16320245E-06
   3.45000005      -2.18956502E-05
   3.50000000      -3.51574381E-05
   3.54999995      -3.99283199E-05
   3.59999990      -3.44466753E-05
   3.65000010      -1.98424223E-05
   3.70000005       8.08855276E-08
   3.75000000       1.98881826E-05
   3.79999995       3.40936313E-05
   3.84999990       3.88117114E-05
   3.90000010       3.29662944E-05
   3.95000005       1.86612215E-05
   4.00000000       5.63609376E-07
   4.05000019      -1.55412326E-05
   4.09999990      -2.45920492E-05
   4.15000010      -2.39119672E-05
   4.19999981      -1.41389019E-05
   4.25000000       9.11480868E-07
   4.30000019       1.54561258E-05
   4.34999990       2.36810956E-05
   4.40000010       2.17963498E-05
   4.44999981       9.52316350E-06
   4.50000000      -9.52882419E-06
   4.55000019      -2.88067258E-05
   4.59999990      -4.08684391E-05
   4.65000010      -3.99455348E-05
   4.69999981      -2.41952130E-05
   4.75000000       3.14707313E-06
   4.80000019       3.42107851E-05
   4.84999990       5.85476737E-05
   4.90000010       6.62966850E-05
   4.94999981       5.15429165E-05
   5.00000000       1.48080144E-05
   5.05000019      -3.62136016E-05
   5.09999990      -8.80857988E-05
   5.15000010      -1.24999584E-04
   5.19999981      -1.33226698E-04
   5.25000000      -1.05395869E-04
   5.30000019      -4.32794259E-05
   5.34999990       4.18729578E-05
   5.40000010       1.31747482E-04
   5.44999981       2.05614691E-04
   5.50000000       2.45997246E-04
   5.55000019       2.43758899E-04
   5.59999990       2.01091898E-04
   5.65000010       1.31417473E-04
   5.69999981       5.60739463E-05
   5.75000000      -1.38997041E-06
   5.80000019      -2.17568777E-05
   5.84999990       4.35482252E-06
   5.90000010       7.36622969E-05
   5.94999981       1.70973974E-04
   6.00000000       2.73410144E-04
   6.05000019       3.56941542E-04
   6.09999990       4.03381622E-04
   6.15000010       4.05784638E-04
   6.19999981       3.70628928E-04
   6.25000000       3.16084857E-04
   6.30000019       2.66823539E-04
   6.34999990       2.46864656E-04
   6.40000010       2.72576610E-04
   6.44999981       3.47928930E-04
   6.50000000       4.63446981E-04
   6.55000019       5.99216088E-04
   6.59999990       7.31056323E-04
   6.65000010       8.38008360E-04
   6.69999981       9.08847665E-04
   6.75000000       9.45617852E-04
   6.80000019       9.63070197E-04
   6.84999990       9.84155689E-04
   6.90000010       1.03295024E-03
   6.94999981       1.12721534E-03
   7.00000000       1.27294741E-03
   7.05000019       1.46267598E-03
   7.09999990       1.67811627E-03
   7.15000010       1.89639942E-03
   7.19999981       2.09794519E-03
   7.25000000       2.27346388E-03
   7.30000019       2.42778054E-03
   7.34999990       2.57913652E-03
   7.40000010       2.75403005E-03
   7.44999981       2.97912257E-03
   7.50000000       3.27272899E-03
   7.55000019       3.63867381E-03
   7.59999990       4.06464189E-03
   7.65000010       4.52581234E-03
   7.69999981       4.99289297E-03
   7.75000000       5.44222398E-03
   7.80000019       5.86481951E-03
   7.84999990       6.27138931E-03
   7.90000010       6.69150241E-03
   7.94999981       7.16678472E-03
   8.00000000       7.73992296E-03
   8.05000019       8.44264869E-03
   8.10000038       9.28634871E-03
   8.14999962       1.02583468E-02
   8.19999981       1.13252569E-02
   8.25000000       1.24427686E-02
   8.30000019       1.35691939E-02
   8.35000038       1.46788554E-02
   8.39999962       1.57713424E-02
   8.44999981       1.68737173E-02
   8.50000000       1.80348717E-02
   8.55000019       1.93134882E-02
   8.60000038       2.07631495E-02
   8.64999962       2.24189609E-02
   8.69999981       2.42897589E-02
   8.75000000       2.63582971E-02
   8.80000019       2.85894126E-02
   8.85000038       3.09437048E-02
   8.89999962       3.33925262E-02
   8.94999981       3.59296463E-02
   9.00000000       3.85758877E-02
   9.05000019       4.13752198E-02
   9.10000038       4.43834662E-02
   9.14999962       4.76531647E-02
   9.19999981       5.12193367E-02
   9.25000000       5.50909303E-02
   9.30000019       5.92506938E-02
   9.35000038       6.36639893E-02
   9.39999962       6.82938546E-02
   9.44999981       7.31178299E-02
   9.50000000       7.81410709E-02
   9.55000019       8.34015533E-02
   9.60000038       8.89654160E-02
   9.64999962       9.49132890E-02
   9.69999981      0.101321854    
   9.75000000      0.108245850    
   9.80000019      0.115706347    
   9.85000038      0.123688787    
   9.89999962      0.132151857    
   9.94999981      0.141044676    
   10.0000000      0.150327265    
   10.0500002      0.159988374    
   10.1000004      0.170055091    
   10.1499996      0.180591747    
   10.1999998      0.191688031    
   10.2500000      0.203440174    
   10.3000002      0.215930849    
   10.3500004      0.229213566    
   10.3999996      0.243306264    
   10.4499998      0.258195728    
   10.5000000      0.273851126    
   10.5500002      0.290242344    
   10.6000004      0.307357252    
   10.6499996      0.325212538    
   10.6999998      0.343855143    
   10.7500000      0.363354117    
   10.8000002      0.383785814    
   10.8500004      0.405217677    
   10.8999996      0.427695841    
   10.9499998      0.451240987    
   11.0000000      0.475853443    
   11.0500002      0.501526177    
   11.1000004      0.528260648    
   11.1499996      0.556080759    
   11.1999998      0.585038781    
   11.2500000      0.615211606    
   11.3000002      0.646687806    
   11.3500004      0.679548860    
   11.3999996      0.713851154    
   11.4499998      0.749614358    
   11.5000000      0.786821306    
   11.5500002      0.825429380    
   11.6000004      0.865391016    
   11.6499996      0.906678021    
   11.6999998      0.949301004    
   11.7500000      0.993317962    
   11.8000002       1.03882957    
   11.8500004       1.08595920    
   11.8999996       1.13482547    
   11.9499998       1.18551373    
   12.0000000       1.23805571    
   12.0500002       1.29242408    
   12.1000004       1.34854472    
   12.1499996       1.40632224    
   12.1999998       1.46567559    
   12.2500000       1.52656817    
   12.3000002       1.58902705    
   12.3500004       1.65314353    
   12.3999996       1.71905303    
   12.4499998       1.78690112    
   12.5000000       1.85680366    
   12.5500002       1.92881358    
   12.6000004       2.00290513    
   12.6499996       2.07897925    
   12.6999998       2.15689087    
   12.7500000       2.23649025    
   12.8000002       2.31766534    
   12.8500004       2.40037417    
   12.8999996       2.48465800    
   12.9499998       2.57062721    
   13.0000000       2.65842843    
   13.0500002       2.74819779    
   13.1000004       2.84001756    
   13.1499996       2.93388534    
   13.1999998       3.02970767    
   13.2500000       3.12731957    
   13.3000002       3.22652173    
   13.3500004       3.32712746    
   13.3999996       3.42900777    
   13.4499998       3.53211641    
   13.5000000       3.63649154    
   13.5500002       3.74223590    
   13.6000004       3.84947586    
   13.6499996       3.95831776    
   13.6999998       4.06880760    
   13.7500000       4.18090963    
   13.8000002       4.29450607    
   13.8500004       4.40941620    
   13.8999996       4.52543402    
   13.9499998       4.64236593    
   14.0000000       4.76006174    
   14.0500002       4.87843370    
   14.1000004       4.99745750    
   14.1499996       5.11715364    
   14.1999998       5.23756313    
   14.2500000       5.35871840    
   14.3000002       5.48062086    
   14.3500004       5.60322857    
   14.3999996       5.72645760    
   14.4499998       5.85019302    
   14.5000000       5.97430706    
   14.5500002       6.09867716    
   14.6000004       6.22319698    
   14.6499996       6.34778166    
   14.6999998       6.47236490    
   14.7500000       6.59688902    
   14.8000002       6.72129488    
   14.8500004       6.84551191    
   14.8999996       6.96945715    
   14.9499998       7.09303808    
   15.0000000       7.21616364    
   15.0500002       7.33875608    
   15.1000004       7.46076250    
   15.1499996       7.58215284    
   15.1999998       7.70292091    
   15.2500000       7.82306719    
   15.3000002       7.94258165    
   15.3500004       8.06142902    
   15.3999996       8.17953587    
   15.4499998       8.29678917    
   15.5000000       8.41304874    
   15.5500002       8.52816772    
   15.6000004       8.64201641    
   15.6499996       8.75450993    
   15.6999998       8.86561584    
   15.7500000       8.97535801    
   15.8000002       9.08380222    
   15.8500004       9.19102764    
   15.8999996       9.29710102    
   15.9499998       9.40204906    
   16.0000000       9.50584698    
   16.0499992       9.60841846    
   16.1000004       9.70965290    
   16.1499996       9.80943394    
   16.2000008       9.90766144    
   16.2500000       10.0042791    
   16.2999992       10.0992785    
   16.3500004       10.1927013    
   16.3999996       10.2846165    
   16.4500008       10.3751049    
   16.5000000       10.4642353    
   16.5499992       10.5520515    
   16.6000004       10.6385679    
   16.6499996       10.7237682    
   16.7000008       10.8076277    
   16.7500000       10.8901167    
   16.7999992       10.9712143    
   16.8500004       11.0509157    
   16.8999996       11.1292343    
   16.9500008       11.2061968    
   17.0000000       11.2818432    
   17.0499992       11.3562250    
   17.1000004       11.4294014    
   17.1499996       11.5014420    
   17.2000008       11.5724230    
   17.2500000       11.6424227    
   17.2999992       11.7115145    
   17.3500004       11.7797565    
   17.3999996       11.8471861    
   17.4500008       11.9138165    
   17.5000000       11.9796419    
   17.5499992       12.0446472    
   17.6000004       12.1088200    
   17.6499996       12.1721725    
   17.7000008       12.2347403    
   17.7500000       12.2965956    
   17.7999992       12.3578329    
   17.8500004       12.4185619    
   17.8999996       12.4788942    
   17.9500008       12.5389252    
   18.0000000       12.5987320    
   18.0499992       12.6583624    
   18.1000004       12.7178459    
   18.1499996       12.7771969    
   18.2000008       12.8364162    
   18.2500000       12.8955116    
   18.2999992       12.9544868    
   18.3500004       13.0133591    
   18.3999996       13.0721550    
   18.4500008       13.1309156    
   18.5000000       13.1896992    
   18.5499992       13.2485781    
   18.6000004       13.3076363    
   18.6499996       13.3669634    
   18.7000008       13.4266386    
   18.7500000       13.4867239    
   18.7999992       13.5472546    
   18.8500004       13.6082411    
   18.8999996       13.6696720    
   18.9500008       13.7315264    
   19.0000000       13.7937908    
   19.0499992       13.8564672    
   19.1000004       13.9195795    
   19.1499996       13.9831705    
   19.2000008       14.0472927    
   19.2500000       14.1119947    
   19.2999992       14.1773100    
   19.3500004       14.2432518    
   19.3999996       14.3098192    
   19.4500008       14.3770046    
   19.5000000       14.4448032    
   19.5499992       14.5132284    
   19.6000004       14.5823059    
   19.6499996       14.6520777    
   19.7000008       14.7225809    
   19.7500000       14.7938461    
   19.7999992       14.8658829    
   19.8500004       14.9386826    
   19.8999996       15.0122223    
   19.9500008       15.0864840    
   20.0000000       15.1614494    
   20.0499992       15.2371197    
   20.1000004       15.3134975    
   20.1499996       15.3905888    
   20.2000008       15.4683819    
   20.2500000       15.5468512    
   20.2999992       15.6259546    
   20.3500004       15.7056494    
   20.3999996       15.7859106    
   20.4500008       15.8667393    
   20.5000000       15.9481745    
   20.5499992       16.0302849    
   20.6000004       16.1131458    
   20.6499996       16.1968060    
   20.7000008       16.2812767    
   20.7500000       16.3665085    
   20.7999992       16.4524002    
   20.8500004       16.5388298    
   20.8999996       16.6256752    
   20.9500008       16.7128563    
   21.0000000       16.8003445    
   21.0499992       16.8881607    
   21.1000004       16.9763660    
   21.1499996       17.0650291    
   21.2000008       17.1541901    
   21.2500000       17.2438622    
   21.2999992       17.3340168    
   21.3500004       17.4245987    
   21.3999996       17.5155563    
   21.4500008       17.6068459    
   21.5000000       17.6984482    
   21.5499992       17.7903576    
   21.6000004       17.8825626    
   21.6499996       17.9750290    
   21.7000008       18.0676918    
   21.7500000       18.1604519    
   21.7999992       18.2532082    
   21.8500004       18.3458748    
   21.8999996       18.4384003    
   21.9500008       18.5307961    
   22.0000000       18.6231022    
   22.0499992       18.7153835    
   22.1000004       18.8076801    
   22.1499996       18.8999939    
   22.2000008       18.9922733    
   22.2500000       19.0844231    
   22.2999992       19.1763287    
   22.3500004       19.2678909    
   22.3999996       19.3590469    
   22.4500008       19.4497700    
   22.5000000       19.5400600    
   22.5499992       19.6299057    
   22.6000004       19.7192631    
   22.6499996       19.8080406    
   22.7000008       19.8961010    
   22.7500000       19.9833012    
   22.7999992       20.0695248    
   22.8500004       20.1547165    
   22.8999996       20.2388935    
   22.9500008       20.3221264    
   23.0000000       20.4045048    
   23.0499992       20.4860649    
   23.1000004       20.5667744    
   23.1499996       20.6465015    
   23.2000008       20.7250481    
   23.2500000       20.8021870    
   23.2999992       20.8777180    
   23.3500004       20.9515305    
   23.3999996       21.0235920    
   23.4500008       21.0939465    
   23.5000000       21.1626644    
   23.5499992       21.2297707    
   23.6000004       21.2952175    
   23.6499996       21.3588696    
   23.7000008       21.4205322    
   23.7500000       21.4800053    
   23.7999992       21.5371304    
   23.8500004       21.5918331    
   23.8999996       21.6441250    
   23.9500008       21.6940651    
   24.0000000       21.7416992    
   24.0499992       21.7870140    
   24.1000004       21.8299065    
   24.1499996       21.8701820    
   24.2000008       21.9076138    
   24.2500000       21.9419937    
   24.2999992       21.9731979    
   24.3500004       22.0011940    
   24.3999996       22.0260468    
   24.4500008       22.0478439    
   24.5000000       22.0666466    
   24.5499992       22.0824299    
   24.6000004       22.0950642    
   24.6499996       22.1043358    
   24.7000008       22.1100101    
   24.7500000       22.1118908    
   24.7999992       22.1098785    
   24.8500004       22.1039753    
   24.8999996       22.0942535    
   24.9500008       22.0808105    
   25.0000000       22.0636978    
   25.0499992       22.0428925    
   25.1000004       22.0182915    
   25.1499996       21.9897499    
   25.2000008       21.9571419    
   25.2500000       21.9204140    
   25.2999992       21.8796139    
   25.3500004       21.8348503    
   25.3999996       21.7862549    
   25.4500008       21.7339058    
   25.5000000       21.6777763    
   25.5499992       21.6177273    
   25.6000004       21.5535412    
   25.6499996       21.4850101    
   25.7000008       21.4120045    
   25.7500000       21.3345490    
   25.7999992       21.2528152    
   25.8500004       21.1670895    
   25.8999996       21.0776711    
   25.9500008       20.9847870    
   26.0000000       20.8885288    
   26.0499992       20.7888412    
   26.1000004       20.6855774    
   26.1499996       20.5785713    
   26.2000008       20.4677372    
   26.2500000       20.3531189    
   26.2999992       20.2348938    
   26.3500004       20.1133175    
   26.3999996       19.9886551    
   26.4500008       19.8610897    
   26.5000000       19.7306957    
   26.5499992       19.5974445    
   26.6000004       19.4612694    
   26.6499996       19.3221436    
   26.7000008       19.1801548    
   26.7500000       19.0355225    
   26.7999992       18.8885632    
   26.8500004       18.7396202    
   26.8999996       18.5889664    
   26.9500008       18.4367523    
   27.0000000       18.2829895    
   27.0499992       18.1275997    
   27.1000004       17.9705009    
   27.1499996       17.8116913    
   27.2000008       17.6513081    
   27.2500000       17.4896336    
   27.2999992       17.3270321    
   27.3500004       17.1638641    
   27.3999996       17.0003948    
   27.4500008       16.8367596    
   27.5000000       16.6729584    
   27.5499992       16.5089417    
   27.6000004       16.3446827    
   27.6499996       16.1802711    
   27.7000008       16.0159340    
   27.7500000       15.8520021    
   27.7999992       15.6888494    
   27.8500004       15.5267782    
   27.8999996       15.3659582    
   27.9500008       15.2064037    
   28.0000000       15.0480165    
   28.0499992       14.8906717    
   28.1000004       14.7343187    
   28.1499996       14.5790472    
   28.2000008       14.4250937    
   28.2500000       14.2727919    
   28.2999992       14.1224842    
   28.3500004       13.9744282    
   28.3999996       13.8287430    
   28.4500008       13.6854143    
   28.5000000       13.5443506    
   28.5499992       13.4054699    
   28.6000004       13.2687750    
   28.6499996       13.1343927    
   28.7000008       13.0025415    
   28.7500000       12.8734598    
   28.7999992       12.7473240    
   28.8500004       12.6241789    
   28.8999996       12.5039330    
   28.9500008       12.3864021    
   29.0000000       12.2714005    
   29.0499992       12.1588364    
   29.1000004       12.0487690    
   29.1499996       11.9414015    
   29.2000008       11.8370142    
   29.2500000       11.7358618    
   29.2999992       11.6380758    
   29.3500004       11.5436172    
   29.3999996       11.4522877    
   29.4500008       11.3638077    
   29.5000000       11.2779264    
   29.5499992       11.1945066    
   29.6000004       11.1135721    
   29.6499996       11.0352745    
   29.7000008       10.9598122    
   29.7500000       10.8873291    
   29.7999992       10.8178377    
   29.8500004       10.7511950    
   29.8999996       10.6871519    
   29.9500008       10.6254473    
   30.0000000       10.5659018    
   30.0499992       10.5084782    
   30.1000004       10.4532862    
   30.1499996       10.4005070    
   30.2000008       10.3502922    
   30.2500000       10.3026695    
   30.2999992       10.2574921    
   30.3500004       10.2144594    
   30.3999996       10.1732101    
   30.4500008       10.1334295    
   30.5000000       10.0949545    
   30.5499992       10.0578108    
   30.6000004       10.0221777    
   30.6499996       9.98828793    
   30.7000008       9.95631790    
   30.7500000       9.92628765    
   30.7999992       9.89803600    
   30.8500004       9.87126446    
   30.8999996       9.84564018    
   30.9500008       9.82089615    
   31.0000000       9.79691601    
   31.0499992       9.77373886    
   31.1000004       9.75150013    
   31.1499996       9.73033905    
   31.2000008       9.71029949    
   31.2500000       9.69128227    
   31.2999992       9.67306042    
   31.3500004       9.65536308    
   31.3999996       9.63797092    
   31.4500008       9.62081051    
   31.5000000       9.60396957    
   31.5499992       9.58765793    
   31.6000004       9.57209873    
   31.6499996       9.55742359    
   31.7000008       9.54358292    
   31.7500000       9.53034401    
   31.7999992       9.51735783    
   31.8500004       9.50427532    
   31.8999996       9.49086666    
   31.9500008       9.47709846    
   32.0000000       9.46312904    
   32.0499992       9.44922447    
   32.0999985       9.43564224    
   32.1500015       9.42251205    
   32.2000008       9.40977955    
   32.2500000       9.39722919    
   32.2999992       9.38456821    
   32.3499985       9.37155914    
   32.4000015       9.35811806    
   32.4500008       9.34434509    
   32.5000000       9.33048916    
   32.5499992       9.31683159    
   32.5999985       9.30356312    
   32.6500015       9.29068661    
   32.7000008       9.27800369    
   32.7500000       9.26518440    
   32.7999992       9.25188541    