  -10.0000000       0.00000000    
  -9.94999981       0.00000000    
  -9.89999962       0.00000000    
  -9.85000038       0.00000000    
  -9.80000019       0.00000000    
  -9.75000000       0.00000000    
  -9.69999981       0.00000000    
  -9.64999962       0.00000000    
  -9.60000038       0.00000000    
  -9.55000019       5.20726806E-22
  -9.50000000       9.54979290E-21
  -9.44999981       8.72708957E-20
  -9.39999962       5.26981000E-19
  -9.35000038       2.34418457E-18
  -9.30000019       8.07115444E-18
  -9.25000000       2.17966260E-17
  -9.19999981       4.47022333E-17
  -9.14999962       5.85178667E-17
  -9.10000038      -1.13511994E-17
  -9.05000019      -3.48619941E-16
  -9.00000000      -1.27148222E-15
  -8.94999981      -3.11994655E-15
  -8.89999962      -5.83335539E-15
  -8.85000038      -8.08477956E-15
  -8.80000019      -6.11843704E-15
  -8.75000000       6.94224350E-15
  -8.69999981       3.97022571E-14
  -8.64999962       9.68748261E-14
  -8.60000038       1.68094976E-13
  -8.55000019       2.13120157E-13
  -8.50000000       1.51516725E-13
  -8.44999981      -1.27812162E-13
  -8.39999962      -7.18422338E-13
  -8.35000038      -1.59844880E-12
  -8.30000019      -2.49816357E-12
  -8.25000000      -2.79262919E-12
  -8.19999981      -1.52818578E-12
  -8.14999962       2.28665936E-12
  -8.10000038       9.04448478E-12
  -8.05000019       1.76306452E-11
  -8.00000000       2.45750816E-11
  -7.94999981       2.38761372E-11
  -7.90000010       8.24759098E-12
  -7.84999990      -2.76753412E-11
  -7.80000019      -8.23718871E-11
  -7.75000000      -1.42149251E-10
  -7.69999981      -1.78355747E-10
  -7.65000010      -1.50747831E-10
  -7.59999990      -2.00343631E-11
  -7.55000019       2.30199720E-10
  -7.50000000       5.66995395E-10
  -7.44999981       8.87716789E-10
  -7.40000010       1.02104003E-09
  -7.34999990       7.63604235E-10
  -7.30000019      -4.20085390E-11
  -7.25000000      -1.39952971E-09
  -7.19999981      -3.05530090E-09
  -7.15000010      -4.45145565E-09
  -7.09999990      -4.79328088E-09
  -7.05000019      -3.26733973E-09
  -7.00000000       6.03130990E-10
  -6.94999981       6.55052368E-09
  -6.90000010       1.32584947E-08
  -6.84999990       1.83528890E-08
  -6.80000019       1.88475724E-08
  -6.75000000       1.20843335E-08
  -6.69999981      -2.99108160E-09
  -6.65000010      -2.45968987E-08
  -6.59999990      -4.74679389E-08
  -6.55000019      -6.33346886E-08
  -6.50000000      -6.28409964E-08
  -6.44999981      -3.87514874E-08
  -6.40000010       1.02950111E-08
  -6.34999990       7.67618431E-08
  -6.30000019       1.43420834E-07
  -6.25000000       1.85990132E-07
  -6.19999981       1.79508618E-07
  -6.15000010       1.07396964E-07
  -6.09999990      -2.92776168E-08
  -6.05000019      -2.05783280E-07
  -6.00000000      -3.74360923E-07
  -5.94999981      -4.73551779E-07
  -5.90000010      -4.45644559E-07
  -5.84999990      -2.58446818E-07
  -5.80000019       7.52115454E-08
  -5.75000000       4.88010755E-07
  -5.69999981       8.65114544E-07
  -5.65000010       1.06987181E-06
  -5.59999990       9.84430130E-07
  -5.55000019       5.55080419E-07
  -5.50000000      -1.72217639E-07
  -5.44999981      -1.04095784E-06
  -5.40000010      -1.80776692E-06
  -5.34999990      -2.20098286E-06
  -5.30000019      -2.00257909E-06
  -5.25000000      -1.13135764E-06
  -5.19999981       2.99869242E-07
  -5.15000010       1.97737313E-06
  -5.09999990       3.44236059E-06
  -5.05000019       4.20390415E-06
  -5.00000000       3.88373246E-06
  -4.94999981       2.35305015E-06
  -4.90000010      -1.82517681E-07
  -4.84999990      -3.18440607E-06
  -4.80000019      -5.88195462E-06
  -4.75000000      -7.45706120E-06
  -4.69999981      -7.26988173E-06
  -4.65000010      -5.06554852E-06
  -4.59999990      -1.10074461E-06
  -4.55000019       3.85436488E-06
  -4.50000000       8.65261791E-06
  -4.44999981       1.20219220E-05
  -4.40000010       1.28776601E-05
  -4.34999990       1.06210064E-05
  -4.30000019       5.34792707E-06
  -4.25000000      -2.08878578E-06
  -4.19999981      -1.01908890E-05
  -4.15000010      -1.70887324E-05
  -4.09999990      -2.09320369E-05
  -4.05000019      -2.03245836E-05
  -4.00000000      -1.47151659E-05
  -3.95000005      -4.65597532E-06
  -3.90000010       8.14722353E-06
  -3.84999990       2.10405815E-05
  -3.79999995       3.08874660E-05
  -3.75000000       3.47413988E-05
  -3.70000005       3.06122784E-05
  -3.65000010       1.81568485E-05
  -3.59999990      -9.03515001E-07
  -3.54999995      -2.28164899E-05
  -3.50000000      -4.23860511E-05
  -3.45000005      -5.40834808E-05
  -3.40000010      -5.34899264E-05
  -3.34999990      -3.87295077E-05
  -3.29999995      -1.14705599E-05
  -3.25000000       2.28949248E-05
  -3.20000005       5.61179331E-05
  -3.15000010       7.89528931E-05
  -3.09999990       8.36391264E-05
  -3.04999995       6.63636165E-05
  -3.00000000       2.89528234E-05
  -2.95000005      -2.08486217E-05
  -2.90000010      -7.08168300E-05
  -2.84999990      -1.07217165E-04
  -2.79999995      -1.18605007E-04
  -2.75000000      -9.94020302E-05
  -2.70000005      -5.21240545E-05
  -2.65000010       1.25765082E-05
  -2.59999990       7.82969582E-05
  -2.54999995       1.27202235E-04
  -2.50000000       1.45118160E-04
  -2.45000005       1.25892824E-04
  -2.40000010       7.36239745E-05
  -2.34999990       1.91884760E-06
  -2.29999995      -6.97624127E-05
  -2.25000000      -1.21696954E-04
  -2.20000005      -1.39766416E-04
  -2.15000010      -1.19771350E-04
  -2.09999990      -6.87789725E-05
  -2.04999995      -2.99030830E-06
  -2.00000000       5.72793033E-05
  -1.95000005       9.39579622E-05
  -1.89999998       9.68907480E-05
  -1.85000002       6.69896617E-05
  -1.79999995       1.58195526E-05
  -1.75000000      -3.82602775E-05
  -1.70000005      -7.61417468E-05
  -1.64999998      -8.42182417E-05
  -1.60000002      -5.87927461E-05
  -1.54999995      -7.22179630E-06
  -1.50000000       5.45263538E-05
  -1.45000005       1.07025968E-04
  -1.39999998       1.33509195E-04
  -1.35000002       1.24930346E-04
  -1.29999995       8.24003146E-05
  -1.25000000       1.63680597E-05
  -1.20000005      -5.69499462E-05
  -1.14999998      -1.20507022E-04
  -1.10000002      -1.61008065E-04
  -1.04999995      -1.71717329E-04
  -1.00000000      -1.52868291E-04
 -0.949999988      -1.10005436E-04
 -0.899999976      -5.13157465E-05
 -0.850000024       1.47669061E-05
 -0.800000012       8.07476463E-05
 -0.750000000       1.39854033E-04
 -0.699999988       1.85025157E-04
 -0.649999976       2.08202880E-04
 -0.600000024       2.00957104E-04
 -0.550000012       1.56852155E-04
 -0.500000000       7.50198451E-05
 -0.449999988      -3.64503830E-05
 -0.400000006      -1.59060684E-04
 -0.349999994      -2.65790994E-04
 -0.300000012      -3.26680660E-04
 -0.250000000      -3.17070138E-04
 -0.200000003      -2.26228032E-04
 -0.150000006      -6.34964890E-05
 -0.100000001       1.40547927E-04
  -5.00000007E-02   3.39130900E-04
   5.55111512E-16   4.79866925E-04
   5.00000007E-02   5.18408604E-04
  0.100000001       4.31465014E-04
  0.150000006       2.25357871E-04
  0.200000003      -6.26882975E-05
  0.250000000      -3.71406932E-04
  0.300000012      -6.29137387E-04
  0.349999994      -7.70975428E-04
  0.400000006      -7.55106565E-04
  0.449999988      -5.74128993E-04
  0.500000000      -2.58404936E-04
  0.550000012       1.29547043E-04
  0.600000024       5.08428318E-04
  0.649999976       7.96270091E-04
  0.699999988       9.29152360E-04
  0.750000000       8.76266684E-04
  0.800000012       6.47849927E-04
  0.850000024       2.94034049E-04
  0.899999976      -1.05407162E-04
  0.949999988      -4.58451861E-04
   1.00000000      -6.81739068E-04
   1.04999995      -7.20365788E-04
   1.10000002      -5.61875990E-04
   1.14999998      -2.40729423E-04
   1.20000005       1.68481434E-04
   1.25000000       5.68162592E-04
   1.29999995       8.61565291E-04
   1.35000002       9.77619668E-04
   1.39999998       8.90247698E-04
   1.45000005       6.26598601E-04
   1.50000000       2.61292909E-04
   1.54999995      -1.02488710E-04
   1.60000002      -3.60391743E-04
   1.64999998      -4.35313646E-04
   1.70000005      -2.98730098E-04
   1.75000000       2.14715510E-05
   1.79999995       4.49224986E-04
   1.85000002       8.82356544E-04
   1.89999998       1.22198300E-03
   1.95000005       1.40037620E-03
   2.00000000       1.39887223E-03
   2.04999995       1.25056098E-03
   2.09999990       1.02738570E-03
   2.15000010       8.16290441E-04
   2.20000005       6.92489848E-04
   2.25000000       6.98613469E-04
   2.29999995       8.36177089E-04
   2.34999990       1.07136555E-03
   2.40000010       1.35207933E-03
   2.45000005       1.62939040E-03
   2.50000000       1.87531847E-03
   2.54999995       2.09059101E-03
   2.59999990       2.30008597E-03
   2.65000010       2.53845076E-03
   2.70000005       2.83212843E-03
   2.75000000       3.18532949E-03
   2.79999995       3.57583328E-03
   2.84999990       3.96260945E-03
   2.90000010       4.30252915E-03
   2.95000005       4.56976797E-03
   3.00000000       4.77022864E-03
   3.04999995       4.94499644E-03
   3.09999990       5.16081788E-03
   3.15000010       5.49041480E-03
   3.20000005       5.98930847E-03
   3.25000000       6.67729694E-03
   3.29999995       7.53125502E-03
   3.34999990       8.49207398E-03
   3.40000010       9.48368944E-03
   3.45000005       1.04380073E-02
   3.50000000       1.13175875E-02
   3.54999995       1.21287676E-02
   3.59999990       1.29211266E-02
   3.65000010       1.37736844E-02
   3.70000005       1.47723528E-02
   3.75000000       1.59856863E-02
   3.79999995       1.74461640E-02
   3.84999990       1.91422030E-02
   3.90000010       2.10228022E-02
   3.95000005       2.30130274E-02
   4.00000000       2.50358675E-02
   4.05000019       2.70346757E-02
   4.09999990       2.89906319E-02
   4.15000010       3.09312623E-02
   4.19999981       3.29281017E-02
   4.25000000       3.50840315E-02
   4.30000019       3.75127643E-02
   4.34999990       4.03147414E-02
   4.40000010       4.35544625E-02
   4.44999981       4.72446531E-02
   4.50000000       5.13416082E-02
   4.55000019       5.57542965E-02
   4.59999990       6.03664704E-02
   4.65000010       6.50678053E-02
   4.69999981       6.97867870E-02
   4.75000000       7.45165795E-02
   4.80000019       7.93258771E-02
   4.84999990       8.43500197E-02
   4.90000010       8.97631273E-02
   4.94999981       9.57377627E-02
   5.00000000      0.102403015    
   5.05000019      0.109813400    
   5.09999990      0.117938310    
   5.15000010      0.126676038    
   5.19999981      0.135888845    
   5.25000000      0.145448625    
   5.30000019      0.155279323    
   5.34999990      0.165383115    
   5.40000010      0.175842434    
   5.44999981      0.186797932    
   5.50000000      0.198410287    
   5.55000019      0.210818961    
   5.59999990      0.224111333    
   5.65000010      0.238311768    
   5.69999981      0.253392875    
   5.75000000      0.269303352    
   5.80000019      0.286001176    
   5.84999990      0.303480208    
   5.90000010      0.321780980    
   5.94999981      0.340982825    
   6.00000000      0.361182064    
   6.05000019      0.382465214    
   6.09999990      0.404888272    
   6.15000010      0.428469241    
   6.19999981      0.453196704    
   6.25000000      0.479049832    
   6.30000019      0.506021678    
   6.34999990      0.534137070    
   6.40000010      0.563457906    
   6.44999981      0.594075263    
   6.50000000      0.626091421    
   6.55000019      0.659599602    
   6.59999990      0.694668591    
   6.65000010      0.731337309    
   6.69999981      0.769620478    
   6.75000000      0.809521437    
   6.80000019      0.851047158    
   6.84999990      0.894218802    
   6.90000010      0.939075768    
   6.94999981      0.985672414    
   7.00000000       1.03407013    
   7.05000019       1.08432877    
   7.09999990       1.13650179    
   7.15000010       1.19063365    
   7.19999981       1.24676275    
   7.25000000       1.30492306    
   7.30000019       1.36514676    
   7.34999990       1.42746437    
   7.40000010       1.49190557    
   7.44999981       1.55849993    
   7.50000000       1.62728083    
   7.55000019       1.69829094    
   7.59999990       1.77158678    
   7.65000010       1.84723926    
   7.69999981       1.92532730    
   7.75000000       2.00592422    
   7.80000019       2.08907986    
   7.84999990       2.17480659    
   7.90000010       2.26307154    
   7.94999981       2.35380626    
   8.00000000       2.44692731    
   8.05000019       2.54236674    
   8.10000038       2.64009833    
   8.14999962       2.74015594    
   8.19999981       2.84262967    
   8.25000000       2.94764376    
   8.30000019       3.05532241    
   8.35000038       3.16575313    
   8.39999962       3.27896404    
   8.44999981       3.39491725    
   8.50000000       3.51352978    
   8.55000019       3.63470316    
   8.60000038       3.75835991    
   8.64999962       3.88446474    
   8.69999981       4.01302958    
   8.75000000       4.14409399    
   8.80000019       4.27769375    
   8.85000038       4.41383028    
   8.89999962       4.55245256    
   8.94999981       4.69345903    
   9.00000000       4.83672476    
   9.05000019       4.98213291    
   9.10000038       5.12961435    
   9.14999962       5.27916193    
   9.19999981       5.43082571    
   9.25000000       5.58468819    
   9.30000019       5.74082232    
   9.35000038       5.89925528    
   9.39999962       6.05994558    
   9.44999981       6.22278357    
   9.50000000       6.38761187    
   9.55000019       6.55426025    
   9.60000038       6.72257566    
   9.64999962       6.89243746    
   9.69999981       7.06376362    
   9.75000000       7.23649645    
   9.80000019       7.41058397    
   9.85000038       7.58596945    
   9.89999962       7.76259279    
   9.94999981       7.94040012    
   10.0000000       8.11936092    
   10.0500002       8.29947472    
   10.1000004       8.48077488    
   10.1499996       8.66329956    
   10.1999998       8.84705734    
   10.2500000       9.03199768    
   10.3000002       9.21798706    
   10.3500004       9.40481472    
   10.3999996       9.59222317    
   10.4499998       9.77995586    
   10.5000000       9.96781254    
   10.5500002       10.1556778    
   10.6000004       10.3435307    
   10.6499996       10.5314302    
   10.6999998       10.7194662    
   10.7500000       10.9077120    
   10.8000002       11.0961924    
   10.8500004       11.2848644    
   10.8999996       11.4736347    
   10.9499998       11.6623821    
   11.0000000       11.8509970    
   11.0500002       12.0393972    
   11.1000004       12.2275343    
   11.1499996       12.4153814    
   11.1999998       12.6029062    
   11.2500000       12.7900534    
   11.3000002       12.9767342    
   11.3500004       13.1628370    
   11.3999996       13.3482504    
   11.4499998       13.5328865    
   11.5000000       13.7167063    
   11.5500002       13.8997126    
   11.6000004       14.0819492    
   11.6499996       14.2634630    
   11.6999998       14.4442940    
   11.7500000       14.6244555    
   11.8000002       14.8039389    
   11.8500004       14.9827290    
   11.8999996       15.1608114    
   11.9499998       15.3381939    
   12.0000000       15.5148935    
   12.0500002       15.6909161    
   12.1000004       15.8662415    
   12.1499996       16.0408058    
   12.1999998       16.2145119    
   12.2500000       16.3872509    
   12.3000002       16.5589428    
   12.3500004       16.7295685    
   12.3999996       16.8992043    
   12.4499998       17.0679893    
   12.5000000       17.2361012    
   12.5500002       17.4037018    
   12.6000004       17.5708771    
   12.6499996       17.7376175    
   12.6999998       17.9038277    
   12.7500000       18.0693703    
   12.8000002       18.2341309    
   12.8500004       18.3980713    
   12.8999996       18.5612621    
   12.9499998       18.7238655    
   13.0000000       18.8860798    
   13.0500002       19.0480804    
   13.1000004       19.2099400    
   13.1499996       19.3716164    
   13.1999998       19.5329571    
   13.2500000       19.6937695    
   13.3000002       19.8538799    
   13.3500004       20.0132198    
   13.3999996       20.1718388    
   13.4499998       20.3299065    
   13.5000000       20.4876385    
   13.5500002       20.6452427    
   13.6000004       20.8028469    
   13.6499996       20.9604740    
   13.6999998       21.1180573    
   13.7500000       21.2754784    
   13.8000002       21.4326324    
   13.8500004       21.5894642    
   13.8999996       21.7459850    
   13.9499998       21.9022388    
   14.0000000       22.0582695    
   14.0500002       22.2140656    
   14.1000004       22.3695431    
   14.1499996       22.5245647    
   14.1999998       22.6789856    
   14.2500000       22.8327065    
   14.3000002       22.9857273    
   14.3500004       23.1381512    
   14.3999996       23.2901592    
   14.4499998       23.4419289    
   14.5000000       23.5935631    
   14.5500002       23.7450371    
   14.6000004       23.8961849    
   14.6499996       24.0467358    
   14.6999998       24.1963730    
   14.7500000       24.3448410    
   14.8000002       24.4919739    
   14.8500004       24.6377354    
   14.8999996       24.7821751    
   14.9499998       24.9253750    
   15.0000000       25.0673809    
   15.0500002       25.2081642    
   15.1000004       25.3476067    
   15.1499996       25.4855404    
   15.1999998       25.6217937    
   15.2500000       25.7562351    
   15.3000002       25.8887825    
   15.3500004       26.0193996    
   15.3999996       26.1480389    
   15.4499998       26.2745953    
   15.5000000       26.3988762    
   15.5500002       26.5206032    
   15.6000004       26.6394577    
   15.6499996       26.7551441    
   15.6999998       26.8674583    
   15.7500000       26.9763203    
   15.8000002       27.0817471    
   15.8500004       27.1838112    
   15.8999996       27.2825584    
   15.9499998       27.3779316    
   16.0000000       27.4697495    
   16.0499992       27.5577106    
   16.1000004       27.6414547    
   16.1499996       27.7206383    
   16.2000008       27.7949963    
   16.2500000       27.8643723    
   16.2999992       27.9286995    
   16.3500004       27.9879551    
   16.3999996       28.0420914    
   16.4500008       28.0909882    
   16.5000000       28.1344357    
   16.5499992       28.1721630    
   16.6000004       28.2038937    
   16.6499996       28.2293987    
   16.7000008       28.2485237    
   16.7500000       28.2612000    
   16.7999992       28.2673969    
   16.8500004       28.2670746    
   16.8999996       28.2601452    
   16.9500008       28.2464485    
   17.0000000       28.2257671    
   17.0499992       28.1978893    
   17.1000004       28.1626339    
   17.1499996       28.1198997    
   17.2000008       28.0696564    
   17.2500000       28.0119152    
   17.2999992       27.9466629    
   17.3500004       27.8738289    
   17.3999996       27.7932529    
   17.4500008       27.7047157    
   17.5000000       27.6079922    
   17.5499992       27.5029163    
   17.6000004       27.3894386    
   17.6499996       27.2676449    
   17.7000008       27.1377182    
   17.7500000       26.9998760    
   17.7999992       26.8542976    
   17.8500004       26.7010689    
   17.8999996       26.5401630    
   17.9500008       26.3714752    
   18.0000000       26.1948833    
   18.0499992       26.0103035    
   18.1000004       25.8177509    
   18.1499996       25.6173325    
   18.2000008       25.4092274    
   18.2500000       25.1936264    
   18.2999992       24.9707012    
   18.3500004       24.7405758    
   18.3999996       24.5033455    
   18.4500008       24.2591152    
   18.5000000       24.0080624    
   18.5499992       23.7504463    
   18.6000004       23.4866123    
   18.6499996       23.2169399    
   18.7000008       22.9417744    
   18.7500000       22.6613770    
   18.7999992       22.3758965    
   18.8500004       22.0853901    
   18.8999996       21.7898941    
   18.9500008       21.4894905    
   19.0000000       21.1843872    
   19.0499992       20.8749409    
   19.1000004       20.5616322    
   19.1499996       20.2449894    
   19.2000008       19.9255219    
   19.2500000       19.6036377    
   19.2999992       19.2796307    
   19.3500004       18.9537029    
   19.3999996       18.6260300    
   19.4500008       18.2968311    
   19.5000000       17.9664211    
   19.5499992       17.6352158    
   19.6000004       17.3037014    
   19.6499996       16.9723511    
   19.7000008       16.6415710    
   19.7500000       16.3116665    
   19.7999992       15.9828434    
   19.8500004       15.6552801    
   19.8999996       15.3291912    
   19.9500008       15.0048904    
   20.0000000       14.6828146    
   20.0499992       14.3634901    
   20.1000004       14.0474653    
   20.1499996       13.7352209    
   20.2000008       13.4271078    
   20.2500000       13.1233282    
   20.2999992       12.8239737    
   20.3500004       12.5290956    
   20.3999996       12.2387991    
   20.4500008       11.9532976    
   20.5000000       11.6729364    
   20.5499992       11.3981485    
   20.6000004       11.1293888    
   20.6499996       10.8670464    
   20.7000008       10.6113911    
   20.7500000       10.3625555    
   20.7999992       10.1205673    
   20.8500004       9.88541603    
   20.8999996       9.65712261    
   20.9500008       9.43578148    
   21.0000000       9.22157860    
   21.0499992       9.01475811    
   21.1000004       8.81556702    
   21.1499996       8.62421131    
   21.2000008       8.44081688    
   21.2500000       8.26542854    
   21.2999992       8.09802723    
   21.3500004       7.93856812    
   21.3999996       7.78700399    
   21.4500008       7.64330530    
   21.5000000       7.50745201    
   21.5499992       7.37942362    
   21.6000004       7.25918245    
   21.6499996       7.14666939    
   21.7000008       7.04181242    
   21.7500000       6.94454479    
   21.7999992       6.85481310    
   21.8500004       6.77258348    
   21.8999996       6.69782448    
   21.9500008       6.63048220    
   22.0000000       6.57045460    
   22.0499992       6.51757479    
   22.1000004       6.47162342    
   22.1499996       6.43235302    
   22.2000008       6.39952993    
   22.2500000       6.37296295    
   22.2999992       6.35251331    
   22.3500004       6.33808231    
   22.3999996       6.32957268    
   22.4500008       6.32684708    
   22.5000000       6.32970381    
   22.5499992       6.33787155    
   22.6000004       6.35104418    
   22.6499996       6.36892271    
   22.7000008       6.39126396    
   22.7500000       6.41789675    
   22.7999992       6.44871044    
   22.8500004       6.48361444    
   22.8999996       6.52247763    
   22.9500008       6.56509209    
   23.0000000       6.61115885    
   23.0499992       6.66031933    
   23.1000004       6.71221495    
   23.1499996       6.76655149    
   23.2000008       6.82314491    
   23.2500000       6.88192320    
   23.2999992       6.94288397    
   23.3500004       7.00601912    
   23.3999996       7.07124186    
   23.4500008       7.13834000    
   23.5000000       7.20698071    
   23.5499992       7.27676344    
   23.6000004       7.34730244    
   23.6499996       7.41830826    
   23.7000008       7.48963547    
   23.7500000       7.56127357    
   23.7999992       7.63329172    
   23.8500004       7.70574999    
   23.8999996       7.77862644    
   23.9500008       7.85176706    
   24.0000000       7.92490196    
   24.0499992       7.99770403    
   24.1000004       8.06986809    
   24.1499996       8.14118290    
   24.2000008       8.21156406    
   24.2500000       8.28103924    
   24.2999992       8.34968758    
   24.3500004       8.41756725    
   24.3999996       8.48466492    
   24.4500008       8.55087185    
   24.5000000       8.61601448    
   24.5499992       8.67991257    
   24.6000004       8.74243832    
   24.6499996       8.80355549    
   24.7000008       8.86331558    
   24.7500000       8.92181301    
   24.7999992       8.97912598    
   24.8500004       9.03525448    
   24.8999996       9.09010506    
   24.9500008       9.14350319    
   25.0000000       9.19525051    
   25.0499992       9.24519539    
   25.1000004       9.29328060    
   25.1499996       9.33956528    
   25.2000008       9.38419533    
   25.2500000       9.42734432    
   25.2999992       9.46915340    
   25.3500004       9.50967884    
   25.3999996       9.54888344    
   25.4500008       9.58667088    
   25.5000000       9.62292862    
   25.5499992       9.65758991    
   25.6000004       9.69066143    
   25.6499996       9.72222042    
   25.7000008       9.75238514    
   25.7500000       9.78126907    
   25.7999992       9.80894470    
   25.8500004       9.83541965    
   25.8999996       9.86066151    
   25.9500008       9.88462353    
   26.0000000       9.90728855    
   26.0499992       9.92868328    
   26.1000004       9.94887733    
   26.1499996       9.96795845    
   26.2000008       9.98599434    
   26.2500000       10.0030069    
   26.2999992       10.0189762    
   26.3500004       10.0338602    
   26.3999996       10.0476351    
   26.4500008       10.0603371    
   26.5000000       10.0720720    
   26.5499992       10.0829983    
   26.6000004       10.0932837    
   26.6499996       10.1030464    
   26.7000008       10.1123161    
   26.7500000       10.1210270    
   26.7999992       10.1290493    
   26.8500004       10.1362457    
   26.8999996       10.1425371    
   26.9500008       10.1479473    
   27.0000000       10.1525993    
   27.0499992       10.1566753    
   27.1000004       10.1603575    
   27.1499996       10.1637554    
   27.2000008       10.1668816    
   27.2500000       10.1696577    
   27.2999992       10.1719704    
   27.3500004       10.1737356    
   27.3999996       10.1749563    
   27.4500008       10.1757431    
   27.5000000       10.1762772    
   27.5499992       10.1767454    
   27.6000004       10.1772594    
   27.6499996       10.1778002    
   27.7000008       10.1782131    
   27.7500000       10.1782637    
   27.7999992       10.1777210    
   27.8500004       10.1764574    
   27.8999996       10.1745071    
   27.9500008       10.1720715    
   28.0000000       10.1694613    
   28.0499992       10.1670017    
   28.1000004       10.1649265    
   28.1499996       10.1633120    
   28.2000008       10.1620646    
   28.2500000       10.1609659    
   28.2999992       10.1597605    
   28.3500004       10.1582441    
   28.3999996       10.1563234    
   28.4500008       10.1540289    
   28.5000000       10.1514759    
   28.5499992       10.1487961    
   28.6000004       10.1460772    
   28.6499996       10.1433268    
   28.7000008       10.1404886    
   28.7500000       10.1374826    
   28.7999992       10.1342688    
   28.8500004       10.1308880    
   28.8999996       10.1274738    
   28.9500008       10.1242180    
   29.0000000       10.1213074    
   29.0499992       10.1188545    
   29.1000004       10.1168575    
   29.1499996       10.1151924    
   29.2000008       10.1136494    
   29.2500000       10.1120024    
   29.2999992       10.1100664    
   29.3500004       10.1077499    
   29.3999996       10.1050634    
   29.4500008       10.1020947    
   29.5000000       10.0989714    
   29.5499992       10.0958157    
   29.6000004       10.0927229    
   29.6499996       10.0897570    
   29.7000008       10.0869617    
   29.7500000       10.0843801    
   29.7999992       10.0820494    
   29.8500004       10.0799980    
   29.8999996       10.0782127    
   29.9500008       10.0766296    
   30.0000000       10.0751238    
   30.0499992       10.0735340    
   30.1000004       10.0717115    
   30.1499996       10.0695658    
   30.2000008       10.0671091    
   30.2500000       10.0644569    
   30.2999992       10.0617971    
   30.3500004       10.0593309    
   30.3999996       10.0571966    
   30.4500008       10.0554256    
   30.5000000       10.0539351    
   30.5499992       10.0525513    
   30.6000004       10.0510883    
   30.6499996       10.0494156    
   30.7000008       10.0475054    
   30.7500000       10.0454426    
   30.7999992       10.0433826    
   30.8500004       10.0414877    
   30.8999996       10.0398531    
   30.9500008       10.0384665    
   31.0000000       10.0372095    
   31.0499992       10.0359049    
   31.1000004       10.0343895    
   31.1499996       10.0325851    
   31.2000008       10.0305300    
   31.2500000       10.0283709    
   31.2999992       10.0263081    
   31.3500004       10.0245237    
   31.3999996       10.0231113    
   31.4500008       10.0220413    
   31.5000000       10.0211763    
   31.5499992       10.0203171    
   31.6000004       10.0192795    
   31.6499996       10.0179501    
   31.7000008       10.0163221    
   31.7500000       10.0144844    
   31.7999992       10.0125780    
   31.8500004       10.0107460    
   31.8999996       10.0090780    
   31.9500008       10.0075951    
   32.0000000       10.0062551    
   32.0499992       10.0049820    
   32.0999985       10.0037079    
   32.1500015       10.0023937    
   32.2000008       10.0010376    
   32.2500000       9.99966431    
   32.2999992       9.99830151    
   32.3499985       9.99695969    
   32.4000015       9.99562931    
   32.4500008       9.99429035    
   32.5000000       9.99293137    
   32.5499992       9.99155235    
   32.5999985       9.99017811    
   32.6500015       9.98883820    
   32.7000008       9.98753929    
   32.7500000       9.98625374    
   32.7999992       9.98491573    