  -10.0000000       0.00000000    
  -9.94999981       0.00000000    
  -9.89999962       0.00000000    
  -9.85000038       0.00000000    
  -9.80000019       0.00000000    
  -9.75000000       0.00000000    
  -9.69999981       0.00000000    
  -9.64999962       0.00000000    
  -9.60000038       0.00000000    
  -9.55000019       0.00000000    
  -9.50000000       0.00000000    
  -9.44999981       2.24307863E-37
  -9.39999962       1.98764859E-35
  -9.35000038       2.64141547E-34
  -9.30000019       1.79575919E-33
  -9.25000000       8.05935310E-33
  -9.19999981       2.81206167E-32
  -9.14999962       9.27366419E-32
  -9.10000038       3.36036454E-31
  -9.05000019       1.24783286E-30
  -9.00000000       4.00540390E-30
  -8.94999981       9.63702317E-30
  -8.89999962       1.30183099E-29
  -8.85000038      -1.45494122E-29
  -8.80000019      -1.52605609E-28
  -8.75000000      -5.31277742E-28
  -8.69999981      -1.19446676E-27
  -8.64999962      -1.66394030E-27
  -8.60000038      -1.88125523E-28
  -8.55000019       6.70877589E-27
  -8.50000000       2.25500558E-26
  -8.44999981       4.42546068E-26
  -8.39999962       4.91930487E-26
  -8.35000038      -1.76982500E-26
  -8.30000019      -2.34968458E-25
  -8.25000000      -6.36050807E-25
  -8.19999981      -1.04978405E-24
  -8.14999962      -8.85598819E-25
  -8.10000038       9.47679017E-25
  -8.05000019       5.60165632E-24
  -8.00000000       1.28720319E-23
  -7.94999981       1.87416911E-23
  -7.90000010       1.29922023E-23
  -7.84999990      -2.01139431E-23
  -7.80000019      -9.34649027E-23
  -7.75000000      -1.97366650E-22
  -7.69999981      -2.71237087E-22
  -7.65000010      -1.83092937E-22
  -7.59999990       2.49603542E-22
  -7.55000019       1.15542016E-21
  -7.50000000       2.39864949E-21
  -7.44999981       3.31079101E-21
  -7.40000010       2.53182840E-21
  -7.34999990      -1.74279422E-21
  -7.30000019      -1.07824552E-20
  -7.25000000      -2.34950152E-20
  -7.19999981      -3.42132693E-20
  -7.15000010      -3.14381915E-20
  -7.09999990       2.79872804E-22
  -7.05000019       7.30708606E-20
  -7.00000000       1.82435912E-19
  -6.94999981       2.91105434E-19
  -6.90000010       3.18874275E-19
  -6.84999990       1.52261035E-19
  -6.80000019      -3.11896515E-19
  -6.75000000      -1.08421789E-18
  -6.69999981      -1.97914459E-18
  -6.65000010      -2.53834330E-18
  -6.59999990      -2.05778403E-18
  -6.55000019       2.01148120E-19
  -6.50000000       4.58100730E-18
  -6.44999981       1.04495171E-17
  -6.40000010       1.56983114E-17
  -6.34999990       1.66899273E-17
  -6.30000019       9.06340143E-18
  -6.25000000      -1.03652158E-17
  -6.19999981      -4.08220978E-17
  -6.15000010      -7.48044376E-17
  -6.09999990      -9.68841844E-17
  -6.05000019      -8.59419348E-17
  -6.00000000      -2.21481182E-17
  -5.94999981       1.01639685E-16
  -5.90000010       2.67009402E-16
  -5.84999990       4.21411200E-16
  -5.80000019       4.81222552E-16
  -5.75000000       3.52601896E-16
  -5.69999981      -2.89446775E-17
  -5.65000010      -6.48319812E-16
  -5.59999990      -1.36828834E-15
  -5.55000019      -1.92022200E-15
  -5.50000000      -1.95231375E-15
  -5.44999981      -1.14515011E-15
  -5.40000010       6.22713212E-16
  -5.34999990       3.11025649E-15
  -5.30000019       5.62866946E-15
  -5.25000000       7.11665817E-15
  -5.19999981       6.42363826E-15
  -5.15000010       2.77376503E-15
  -5.09999990      -3.71455626E-15
  -5.05000019      -1.16655656E-14
  -5.00000000      -1.84783185E-14
  -4.94999981      -2.09191151E-14
  -4.90000010      -1.62525395E-14
  -4.84999990      -3.62797594E-15
  -4.80000019       1.48058022E-14
  -4.75000000       3.36862089E-14
  -4.69999981       4.55947603E-14
  -4.65000010       4.36074279E-14
  -4.59999990       2.45981502E-14
  -4.55000019      -7.97927567E-15
  -4.50000000      -4.33942229E-14
  -4.44999981      -6.62345545E-14
  -4.40000010      -6.23888351E-14
  -4.34999990      -2.68521828E-14
  -4.30000019       2.98318329E-14
  -4.25000000       8.04471371E-14
  -4.19999981       8.83839849E-14
  -4.15000010       2.35776906E-14
  -4.09999990      -1.16931150E-13
  -4.05000019      -2.92177171E-13
  -4.00000000      -4.14791682E-13
  -3.95000005      -3.71541394E-13
  -3.90000010      -6.84585987E-14
  -3.84999990       5.09152995E-13
  -3.79999995       1.24358640E-12
  -3.75000000       1.86765750E-12
  -3.70000005       2.01010346E-12
  -3.65000010       1.31352199E-12
  -3.59999990      -3.93638247E-13
  -3.54999995      -2.92277010E-12
  -3.50000000      -5.62527325E-12
  -3.45000005      -7.44610883E-12
  -3.40000010      -7.17807801E-12
  -3.34999990      -3.89834129E-12
  -3.29999995       2.51714795E-12
  -3.25000000       1.09829888E-11
  -3.20000005       1.91117105E-11
  -3.15000010       2.36096698E-11
  -3.09999990       2.12002169E-11
  -3.04999995       9.91389176E-12
  -3.00000000      -9.62469861E-12
  -2.95000005      -3.34230699E-11
  -2.90000010      -5.43564742E-11
  -2.84999990      -6.36934880E-11
  -2.79999995      -5.37882655E-11
  -2.75000000      -2.13197116E-11
  -2.70000005       2.99675736E-11
  -2.65000010       8.82286258E-11
  -2.59999990       1.35148601E-10
  -2.54999995       1.50498725E-10
  -2.50000000       1.18856924E-10
  -2.45000005       3.66796871E-11
  -2.40000010      -8.27790753E-11
  -2.34999990      -2.09162854E-10
  -2.29999995      -3.00801745E-10
  -2.25000000      -3.16256882E-10
  -2.20000005      -2.29064517E-10
  -2.15000010      -4.12299847E-11
  -2.09999990       2.09750495E-10
  -2.04999995       4.54620702E-10
  -2.00000000       6.08358253E-10
  -1.95000005       5.95889671E-10
  -1.89999998       3.80809273E-10
  -1.85000002      -1.24020299E-11
  -1.79999995      -4.92184904E-10
  -1.75000000      -9.15831522E-10
  -1.70000005      -1.12715293E-09
  -1.64999998      -1.00761011E-09
  -1.60000002      -5.25884170E-10
  -1.54999995       2.32028369E-10
  -1.50000000       1.06719789E-09
  -1.45000005       1.71264358E-09
  -1.39999998       1.91160598E-09
  -1.35000002       1.50864854E-09
  -1.29999995       5.24080113E-10
  -1.25000000      -8.18066337E-10
  -1.20000005      -2.12786944E-09
  -1.14999998      -2.95303715E-09
  -1.10000002      -2.92451952E-09
  -1.04999995      -1.90090654E-09
  -1.00000000      -6.01697372E-11
 -0.949999988       2.10394124E-09
 -0.899999976       3.89773325E-09
 -0.850000024       4.63561589E-09
 -0.800000012       3.88352994E-09
 -0.750000000       1.65748359E-09
 -0.699999988      -1.50204804E-09
 -0.649999976      -4.62938932E-09
 -0.600000024      -6.60296440E-09
 -0.550000012      -6.51921805E-09
 -0.500000000      -4.05603329E-09
 -0.449999988       3.06898479E-10
 -0.400000006       5.31619948E-09
 -0.349999994       9.25677490E-09
 -0.300000012       1.04873203E-08
 -0.250000000       8.04762124E-09
 -0.200000003       2.13235407E-09
 -0.150000006      -5.76336889E-09
 -0.100000001      -1.31391911E-08
  -5.00000007E-02  -1.72004100E-08
   5.55111512E-16  -1.58063305E-08
   5.00000007E-02  -8.36084357E-09
  0.100000001       3.68257225E-09
  0.150000006       1.69508763E-08
  0.200000003       2.69852585E-08
  0.250000000       2.96106464E-08
  0.300000012       2.24542980E-08
  0.349999994       6.10674533E-09
  0.400000006      -1.55441491E-08
  0.449999988      -3.60667585E-08
  0.500000000      -4.82527973E-08
  0.550000012      -4.64587657E-08
  0.600000024      -2.88100228E-08
  0.649999976       1.51477586E-09
  0.699999988       3.65120592E-08
  0.750000000       6.52637695E-08
  0.800000012       7.71493944E-08
  0.850000024       6.54739054E-08
  0.899999976       3.03455820E-08
  0.949999988      -2.02872847E-08
   1.00000000      -7.20737034E-08
   1.04999995      -1.08062565E-07
   1.10000002      -1.13947458E-07
   1.14999998      -8.32103737E-08
   1.20000005      -2.04315587E-08
   1.25000000       5.85996034E-08
   1.29999995       1.30461515E-07
   1.35000002       1.70693355E-07
   1.39999998       1.61639605E-07
   1.45000005       9.91316469E-08
   1.50000000      -4.34029834E-09
   1.54999995      -1.21457049E-07
   1.60000002      -2.16938318E-07
   1.64999998      -2.57837485E-07
   1.70000005      -2.24337256E-07
   1.75000000      -1.17610590E-07
   1.79999995       3.81276379E-08
   1.85000002       2.00688248E-07
   1.89999998       3.21237508E-07
   1.95000005       3.58912274E-07
   2.00000000       2.94372796E-07
   2.04999995       1.37852922E-07
   2.09999990      -7.13879089E-08
   2.15000010      -2.74822497E-07
   2.20000005      -4.11316819E-07
   2.25000000      -4.35954178E-07
   2.29999995      -3.35176821E-07
   2.34999990      -1.33104962E-07
   2.40000010       1.13660455E-07
   2.45000005       3.31917732E-07
   2.50000000       4.54053293E-07
   2.54999995       4.39786305E-07
   2.59999990       2.90376619E-07
   2.65000010       5.01822051E-08
   2.70000005      -2.05730345E-07
   2.75000000      -3.94690716E-07
   2.79999995      -4.53239124E-07
   2.84999990      -3.58948029E-07
   2.90000010      -1.39657331E-07
   2.95000005       1.33717990E-07
   3.00000000       3.69329229E-07
   3.04999995       4.84813199E-07
   3.09999990       4.36038817E-07
   3.15000010       2.34139790E-07
   3.20000005      -5.58285542E-08
   3.25000000      -3.35318333E-07
   3.29999995      -5.05848675E-07
   3.34999990      -5.04636148E-07
   3.40000010      -3.29615943E-07
   3.45000005      -4.39204513E-08
   3.50000000       2.43577006E-07
   3.54999995       4.16667177E-07
   3.59999990       3.96757315E-07
   3.65000010       1.78253714E-07
   3.70000005      -1.60035768E-07
   3.75000000      -4.74779085E-07
   3.79999995      -6.05983473E-07
   3.84999990      -4.38840431E-07
   3.90000010       4.14846042E-08
   3.95000005       7.23564256E-07
   4.00000000       1.38618145E-06
   4.05000019       1.75858361E-06
   4.09999990       1.61011349E-06
   4.15000010       8.42256895E-07
   4.19999981      -4.48799625E-07
   4.25000000      -1.96566543E-06
   4.30000019      -3.27068278E-06
   4.34999990      -3.90455580E-06
   4.40000010      -3.53214909E-06
   4.44999981      -2.07153198E-06
   4.50000000       2.38304509E-07
   4.55000019       2.86174577E-06
   4.59999990       5.08785661E-06
   4.65000010       6.22320113E-06
   4.69999981       5.80465667E-06
   4.75000000       3.76811249E-06
   4.80000019       5.15260751E-07
   4.84999990      -3.15393549E-06
   4.90000010      -6.23719416E-06
   4.94999981      -7.80780283E-06
   5.00000000      -7.29779231E-06
   5.05000019      -4.70039231E-06
   5.09999990      -6.22300149E-07
   5.15000010       3.84414625E-06
   5.19999981       7.40628548E-06
   5.25000000       8.94117966E-06
   5.30000019       7.84544682E-06
   5.34999990       4.25733151E-06
   5.40000010      -9.26441544E-07
   5.44999981      -6.26023484E-06
   5.50000000      -1.01396790E-05
   5.55000019      -1.12685193E-05
   5.59999990      -9.06750665E-06
   5.65000010      -3.89876050E-06
   5.69999981       2.97397742E-06
   5.75000000       9.69456778E-06
   5.80000019       1.43180305E-05
   5.84999990       1.53705842E-05
   5.90000010       1.23035534E-05
   5.94999981       5.70138582E-06
   6.00000000      -2.82978795E-06
   6.05000019      -1.10750134E-05
   6.09999990      -1.68161860E-05
   6.15000010      -1.84600012E-05
   6.19999981      -1.55044600E-05
   6.25000000      -8.70180611E-06
   6.30000019       1.38201713E-07
   6.34999990       8.65489801E-06
   6.40000010       1.46092452E-05
   6.44999981       1.65250603E-05
   6.50000000       1.41070186E-05
   6.55000019       8.30757290E-06
   6.59999990       1.01971079E-06
   6.65000010      -5.51325093E-06
   6.69999981      -9.39110032E-06
   6.75000000      -9.63911771E-06
   6.80000019      -6.49681851E-06
   6.84999990      -1.32003015E-06
   6.90000010       3.87586260E-06
   6.94999981       7.08909465E-06
   7.00000000       7.00690634E-06
   7.05000019       3.46391721E-06
   7.09999990      -2.47046978E-06
   7.15000010      -8.81307915E-06
   7.19999981      -1.33020239E-05
   7.25000000      -1.41464761E-05
   7.30000019      -1.06484304E-05
   7.34999990      -3.48799358E-06
   7.40000010       5.43300257E-06
   7.44999981       1.35532091E-05
   7.50000000       1.84499168E-05
   7.55000019       1.86201214E-05
   7.59999990       1.39883705E-05
   7.65000010       5.96600512E-06
   7.69999981      -2.97233623E-06
   7.75000000      -1.00713778E-05
   7.80000019      -1.31907655E-05
   7.84999990      -1.15212106E-05
   7.90000010      -5.87787008E-06
   7.94999981       1.54074894E-06
   8.00000000       7.86605870E-06
   8.05000019       1.05221443E-05
   8.10000038       8.12271719E-06
   8.14999962       9.96098720E-07
   8.19999981      -8.85518602E-06
   8.25000000      -1.83701522E-05
   8.30000019      -2.44342064E-05
   8.35000038      -2.49437890E-05
   8.39999962      -1.95626581E-05
   8.44999981      -9.88678585E-06
   8.50000000       1.07754022E-06
   8.55000019       9.98423820E-06
   8.60000038       1.44258011E-05
   8.64999962       1.39774529E-05
   8.69999981       1.06082043E-05
   8.75000000       8.24354993E-06
   8.80000019       1.15390212E-05
   8.85000038       2.42039077E-05
   8.89999962       4.74070075E-05
   8.94999981       7.88291072E-05
   9.00000000       1.12774083E-04
   9.05000019       1.41445707E-04
   9.10000038       1.57125265E-04
   9.14999962       1.54660986E-04
   9.19999981       1.33512440E-04
   9.25000000       9.86502200E-05
   9.30000019       5.98942061E-05
   9.35000038       2.97153310E-05
   9.39999962       1.99997794E-05
   9.44999981       3.86381398E-05
   9.50000000       8.69331925E-05
   9.55000019       1.58661336E-04
   9.60000038       2.41200338E-04
   9.64999962       3.18558916E-04
   9.69999981       3.75575153E-04
   9.75000000       4.02162113E-04
   9.80000019       3.96395131E-04
   9.85000038       3.65501910E-04
   9.89999962       3.24370398E-04
   9.94999981       2.91883567E-04
   10.0000000       2.86025170E-04
   10.0500002       3.19089449E-04
   10.1000004       3.94341769E-04
   10.1499996       5.05105709E-04
   10.1999998       6.36581331E-04
   10.2500000       7.69928796E-04
   10.3000002       8.87490809E-04
   10.3500004       9.77689051E-04
   10.3999996       1.03820511E-03
   10.4499998       1.07654254E-03
   10.5000000       1.10782788E-03
   10.5500002       1.15050341E-03
   10.6000004       1.22119661E-03
   10.6499996       1.33027753E-03
   10.6999998       1.47941406E-03
   10.7500000       1.66182430E-03
   10.8000002       1.86510605E-03
   10.8500004       2.07573851E-03
   10.8999996       2.28383276E-03
   10.9499998       2.48663616E-03
   11.0000000       2.68967822E-03
   11.0500002       2.90518464E-03
   11.1000004       3.14825890E-03
   11.1499996       3.43204197E-03
   11.1999998       3.76342866E-03
   11.2500000       4.14076867E-03
   11.3000002       4.55439650E-03
   11.3500004       4.98993229E-03
   11.3999996       5.43342018E-03
   11.4499998       5.87671995E-03
   11.5000000       6.32143347E-03
   11.5500002       6.78000506E-03
   11.6000004       7.27349520E-03
   11.6499996       7.82651734E-03
   11.6999998       8.46076477E-03
   11.7500000       9.18905903E-03
   11.8000002       1.00117857E-02
   11.8500004       1.09169716E-02
   11.8999996       1.18841548E-02
   11.9499998       1.28911315E-02
   12.0000000       1.39216771E-02
   12.0500002       1.49720171E-02
   12.1000004       1.60540398E-02
   12.1499996       1.71941891E-02
   12.1999998       1.84281282E-02
   12.2500000       1.97925493E-02
   12.3000002       2.13163868E-02
   12.3500004       2.30138861E-02
   12.3999996       2.48815753E-02
   12.4499998       2.69001033E-02
   12.5000000       2.90405359E-02
   12.5500002       3.12734656E-02
   12.6000004       3.35784778E-02
   12.6499996       3.59513685E-02
   12.6999998       3.84072326E-02
   12.7500000       4.09785025E-02
   12.8000002       4.37086746E-02
   12.8500004       4.66433614E-02
   12.8999996       4.98212613E-02
   12.9499998       5.32674007E-02
   13.0000000       5.69903329E-02
   13.0500002       6.09839484E-02
   13.1000004       6.52329400E-02
   13.1499996       6.97203502E-02
   13.1999998       7.44348690E-02
   13.2500000       7.93758705E-02
   13.3000002       8.45549926E-02
   13.3500004       8.99942815E-02
   13.3999996       9.57216471E-02
   13.4499998      0.101765558    
   13.5000000      0.108150586    
   13.5500002      0.114895269    
   13.6000004      0.122012630    
   13.6499996      0.129512936    
   13.6999998      0.137407318    
   13.7500000      0.145710737    
   13.8000002      0.154442862    
   13.8500004      0.163626716    
   13.8999996      0.173285112    
   13.9499998      0.183436468    
   14.0000000      0.194091812    
   14.0500002      0.205254048    
   14.1000004      0.216920659    
   14.1499996      0.229089066    
   14.1999998      0.241763577    
   14.2500000      0.254961282    
   14.3000002      0.268715203    
   14.3500004      0.283072829    
   14.3999996      0.298090130    
   14.4499998      0.313822389    
   14.5000000      0.330313623    
   14.5500002      0.347588539    
   14.6000004      0.365648627    
   14.6499996      0.384474725    
   14.6999998      0.404034913    
   14.7500000      0.424296618    
   14.8000002      0.445239365    
   14.8500004      0.466864586    
   14.8999996      0.489200026    
   14.9499998      0.512297213    
   15.0000000      0.536222398    
   15.0500002      0.561043680    
   15.1000004      0.586817563    
   15.1499996      0.613578796    
   15.1999998      0.641336322    
   15.2500000      0.670075834    
   15.3000002      0.699768424    
   15.3500004      0.730383158    
   15.3999996      0.761898637    
   15.4499998      0.794311345    
   15.5000000      0.827638328    
   15.5500002      0.861912787    
   15.6000004      0.897175670    
   15.6499996      0.933464289    
   15.6999998      0.970802963    
   15.7500000       1.00919795    
   15.8000002       1.04863679    
   15.8500004       1.08909488    
   15.8999996       1.13054347    
   15.9499998       1.17296004    
   16.0000000       1.21633494    
   16.0499992       1.26067281    
   16.1000004       1.30599022    
   16.1499996       1.35230756    
   16.2000008       1.39964044    
   16.2500000       1.44799161    
   16.2999992       1.49734783    
   16.3500004       1.54768002    
   16.3999996       1.59894967    
   16.4500008       1.65111709    
   16.5000000       1.70415044    
   16.5499992       1.75803030    
   16.6000004       1.81275105    
   16.6499996       1.86831617    
   16.7000008       1.92473054    
   16.7500000       1.98199058    
   16.7999992       2.04007745    
   16.8500004       2.09895492    
   16.8999996       2.15857077    
   16.9500008       2.21886468    
   17.0000000       2.27977777    
   17.0499992       2.34126139    
   17.1000004       2.40328360    
   17.1499996       2.46582675    
   17.2000008       2.52888393    
   17.2500000       2.59244680    
   17.2999992       2.65649724    
   17.3500004       2.72099853    
   17.3999996       2.78589344    
   17.4500008       2.85110784    
   17.5000000       2.91656184    
   17.5499992       2.98218131    
   17.6000004       3.04791045    
   17.6499996       3.11371756    
   17.7000008       3.17959499    
   17.7500000       3.24555016    
   17.7999992       3.31159234    
   17.8500004       3.37771583    
   17.8999996       3.44388676    
   17.9500008       3.51003790    
   18.0000000       3.57607079    
   18.0499992       3.64186764    
   18.1000004       3.70731020    
   18.1499996       3.77229810    
   18.2000008       3.83676529    
   18.2500000       3.90068746    
   18.2999992       3.96407819    
   18.3500004       4.02697802    
   18.3999996       4.08943319    
   18.4500008       4.15147686    
   18.5000000       4.21310759    
   18.5499992       4.27428579    
   18.6000004       4.33493042    
   18.6499996       4.39493179    
   18.7000008       4.45416927    
   18.7500000       4.51253128    
   18.7999992       4.56993055    
   18.8500004       4.62631798    
   18.8999996       4.68168116    
   18.9500008       4.73604012    
   19.0000000       4.78943586    
   19.0499992       4.84191227    
   19.1000004       4.89350700    
   19.1499996       4.94423866    
   19.2000008       4.99410772    
   19.2500000       5.04309225    
   19.2999992       5.09115553    
   19.3500004       5.13825130    
   19.3999996       5.18432951    
   19.4500008       5.22933912    
   19.5000000       5.27323484    
   19.5499992       5.31597996    
   19.6000004       5.35754967    
   19.6499996       5.39793396    
   19.7000008       5.43714285    
   19.7500000       5.47520828    
   19.7999992       5.51218271    
   19.8500004       5.54813385    
   19.8999996       5.58313370    
   19.9500008       5.61724615    
   20.0000000       5.65051556    
   20.0499992       5.68295383    
   20.1000004       5.71454000    
   20.1499996       5.74522686    
   20.2000008       5.77494955    
   20.2500000       5.80364704    
   20.2999992       5.83128119    
   20.3500004       5.85784721    
   20.3999996       5.88338709    
   20.4500008       5.90798092    
   20.5000000       5.93173742    
   20.5499992       5.95477390    
   20.6000004       5.97719526    
   20.6499996       5.99907827    
   20.7000008       6.02046061    
   20.7500000       6.04134369    
   20.7999992       6.06169844    
   20.8500004       6.08148336    
   20.8999996       6.10065889    
   20.9500008       6.11920500    
   21.0000000       6.13712740    
   21.0499992       6.15446329    
   21.1000004       6.17127275    
   21.1499996       6.18763351    
   21.2000008       6.20362473    
   21.2500000       6.21932173    
   21.2999992       6.23478556    
   21.3500004       6.25006104    
   21.3999996       6.26517773    
   21.4500008       6.28015471    
   21.5000000       6.29500437    
   21.5499992       6.30973721    
   21.6000004       6.32436848    
   21.6499996       6.33891535    
   21.7000008       6.35340166    
   21.7500000       6.36785030    
   21.7999992       6.38228607    
   21.8500004       6.39673138    
   21.8999996       6.41120434    
   21.9500008       6.42572451    
   22.0000000       6.44030857    
   22.0499992       6.45498037    
   22.1000004       6.46977234    
   22.1499996       6.48472452    
   22.2000008       6.49988699    
   22.2500000       6.51531410    
   22.2999992       6.53105736    
   22.3500004       6.54715490    
   22.3999996       6.56362629    
   22.4500008       6.58046484    
   22.5000000       6.59764004    
   22.5499992       6.61510420    
   22.6000004       6.63280487    
   22.6499996       6.65070057    
   22.7000008       6.66877317    
   22.7500000       6.68703794    
   22.7999992       6.70554543    
   22.8500004       6.72437382    
   22.8999996       6.74361277    
   22.9500008       6.76334858    
   23.0000000       6.78364086    
   23.0499992       6.80451775    
   23.1000004       6.82596493    
   23.1499996       6.84793520    
   23.2000008       6.87035847    
   23.2500000       6.89315796    
   23.2999992       6.91626549    
   23.3500004       6.93963480    
   23.3999996       6.96324635    
   23.4500008       6.98710918    
   23.5000000       7.01125431    
   23.5499992       7.03572989    
   23.6000004       7.06058979    
   23.6499996       7.08588552    
   23.7000008       7.11166191    
   23.7500000       7.13794661    
   23.7999992       7.16475010    
   23.8500004       7.19206047    
   23.8999996       7.21984434    
   23.9500008       7.24804974    
   24.0000000       7.27661133    
   24.0499992       7.30546427    
   24.1000004       7.33455181    
   24.1499996       7.36383772    
   24.2000008       7.39331341    
   24.2500000       7.42300034    
   24.2999992       7.45294142    
   24.3500004       7.48319244    
   24.3999996       7.51380777    
   24.4500008       7.54482412    
   24.5000000       7.57625580    
   24.5499992       7.60808945    
   24.6000004       7.64028597    
   24.6499996       7.67279291    
   24.7000008       7.70555258    
   24.7500000       7.73851395    
   24.7999992       7.77163649    
   24.8500004       7.80489540    
   24.8999996       7.83828068    
   24.9500008       7.87179375    
   25.0000000       7.90544748    
   25.0499992       7.93926144    
   25.1000004       7.97326326    
   25.1499996       8.00748253    
   25.2000008       8.04194927    
   25.2500000       8.07668209    
   25.2999992       8.11168575    
   25.3500004       8.14693737    
   25.3999996       8.18239117    
   25.4500008       8.21797562    
   25.5000000       8.25361061    
   25.5499992       8.28921986    
   25.6000004       8.32475090    
   25.6499996       8.36019039    
   25.7000008       8.39555931    
   25.7500000       8.43091965    
   25.7999992       8.46634293    
   25.8500004       8.50189400    
   25.8999996       8.53761482    
   25.9500008       8.57350826    
   26.0000000       8.60953617    
   26.0499992       8.64563084    
   26.1000004       8.68171024    
   26.1499996       8.71770477    
   26.2000008       8.75356197    
   26.2500000       8.78925800    
   26.2999992       8.82479095    
   26.3500004       8.86016846    
   26.3999996       8.89539528    
   26.4500008       8.93046379    
   26.5000000       8.96535206    
   26.5499992       9.00003147    
   26.6000004       9.03447533    
   26.6499996       9.06867695    
   26.7000008       9.10264778    
   26.7500000       9.13642216    
   26.7999992       9.17003727    
   26.8500004       9.20352268    
   26.8999996       9.23687840    
   26.9500008       9.27006435    
   27.0000000       9.30300808    
   27.0499992       9.33560467    
   27.1000004       9.36774731    
   27.1499996       9.39934063    
   27.2000008       9.43032455    
   27.2500000       9.46067333    
   27.2999992       9.49040413    
   27.3500004       9.51955605    
   27.3999996       9.54818153    
   27.4500008       9.57632160    
   27.5000000       9.60400772    
   27.5499992       9.63124466    
   27.6000004       9.65801716    
   27.6499996       9.68429661    
   27.7000008       9.71004009    
   27.7500000       9.73519611    
   27.7999992       9.75970268    
   27.8500004       9.78348923    
   27.8999996       9.80647850    
   27.9500008       9.82859325    
   28.0000000       9.84976101    
   28.0499992       9.86992836    
   28.1000004       9.88907433    
   28.1499996       9.90720749    
   28.2000008       9.92436981    
   28.2500000       9.94062328    
   28.2999992       9.95603275    
   28.3500004       9.97065353    
   28.3999996       9.98451233    
   28.4500008       9.99760246    
   28.5000000       10.0098810    
   28.5499992       10.0212822    
   28.6000004       10.0317211    
   28.6499996       10.0411129    
   28.7000008       10.0493822    
   28.7500000       10.0564699    
   28.7999992       10.0623398    
   28.8500004       10.0669785    
   28.8999996       10.0703974    
   28.9500008       10.0726309    
   29.0000000       10.0737381    
   29.0499992       10.0737906    
   29.1000004       10.0728731    
   29.1499996       10.0710630    
   29.2000008       10.0684242    
   29.2500000       10.0649910    
   29.2999992       10.0607672    
   29.3500004       10.0557184    
   29.3999996       10.0497894    
   29.4500008       10.0429125    
   29.5000000       10.0350285    
   29.5499992       10.0261078    
   29.6000004       10.0161505    
   29.6499996       10.0051985    
   29.7000008       9.99332523    
   29.7500000       9.98062706    
   29.7999992       9.96720982    
   29.8500004       9.95318317    
   29.8999996       9.93865108    
   29.9500008       9.92371464    
   30.0000000       9.90846729    
   30.0499992       9.89299679    
   30.1000004       9.87738132    
   30.1499996       9.86168289    
   30.2000008       9.84593964    
   30.2500000       9.83016396    
   30.2999992       9.81434536    
   30.3500004       9.79846001    
   30.3999996       9.78248882    
   30.4500008       9.76643753    
   30.5000000       9.75036240    
   30.5499992       9.73437119    
   30.6000004       9.71862793    
   30.6499996       9.70333672    
   30.7000008       9.68872261    
   30.7500000       9.67499542    
   30.7999992       9.66232872    
   30.8500004       9.65084076    
   30.8999996       9.64059639    
   30.9500008       9.63160896    
   31.0000000       9.62386036    
   31.0499992       9.61732388    
   31.1000004       9.61198711    
   31.1499996       9.60786247    
   31.2000008       9.60499954    
   31.2500000       9.60348511    
   31.2999992       9.60343170    
   31.3500004       9.60497189    
   31.3999996       9.60825062    
   31.4500008       9.61340714    
   31.5000000       9.62057400    
   31.5499992       9.62987328    
   31.6000004       9.64140797    
   31.6499996       9.65525913    
   31.7000008       9.67148876    
   31.7500000       9.69013119    
   31.7999992       9.71119690    
   31.8500004       9.73467064    
   31.8999996       9.76051903    
   31.9500008       9.78869343    
   32.0000000       9.81913853    
   32.0499992       9.85181141    
   32.0999985       9.88668442    
   32.1500015       9.92375755    
   32.2000008       9.96306515    
   32.2500000       10.0046759    
   32.2999992       10.0486794    
   32.3499985       10.0951719    
   32.4000015       10.1442394    
   32.4500008       10.1959238    
   32.5000000       10.2502146    
   32.5499992       10.3070335    
   32.5999985       10.3662376    
   32.6500015       10.4276400    
   32.7000008       10.4910278    
   32.7500000       10.5561972    
   32.7999992       10.6229782    