  -10.0000000       0.00000000    
  -9.94999981       0.00000000    
  -9.89999962       0.00000000    
  -9.85000038       0.00000000    
  -9.80000019       0.00000000    
  -9.75000000       0.00000000    
  -9.69999981       0.00000000    
  -9.64999962       0.00000000    
  -9.60000038       0.00000000    
  -9.55000019      -2.84522130E-26
  -9.50000000      -7.24084627E-25
  -9.44999981      -7.51838322E-24
  -9.39999962      -4.66383970E-23
  -9.35000038      -1.98331180E-22
  -9.30000019      -6.08003852E-22
  -9.25000000      -1.31887618E-21
  -9.19999981      -1.67243641E-21
  -9.14999962       6.76685490E-22
  -9.10000038       9.82245877E-21
  -9.05000019       2.73063629E-20
  -9.00000000       3.93855360E-20
  -8.94999981      -1.76145708E-21
  -8.89999962      -1.81349384E-19
  -8.85000038      -5.60572857E-19
  -8.80000019      -9.93006441E-19
  -8.75000000      -8.28086427E-19
  -8.69999981       1.29501722E-18
  -8.64999962       7.06859003E-18
  -8.60000038       1.68841030E-17
  -8.55000019       2.66500123E-17
  -8.50000000       2.41394728E-17
  -8.44999981      -1.16735930E-17
  -8.39999962      -1.02577602E-16
  -8.35000038      -2.49150612E-16
  -8.30000019      -3.96198258E-16
  -8.25000000      -4.01386123E-16
  -8.19999981      -4.15560981E-17
  -8.14999962       8.97838301E-16
  -8.10000038       2.42096988E-15
  -8.05000019       4.03979108E-15
  -8.00000000       4.55071881E-15
  -7.94999981       2.12176205E-15
  -7.90000010      -5.02159163E-15
  -7.84999990      -1.71733524E-14
  -7.80000019      -3.12599610E-14
  -7.75000000      -3.93871574E-14
  -7.69999981      -2.93061067E-14
  -7.65000010       1.16206314E-14
  -7.59999990       8.82861628E-14
  -7.55000019       1.87066549E-13
  -7.50000000       2.67050867E-13
  -7.44999981       2.60681803E-13
  -7.40000010       9.15594979E-14
  -7.34999990      -2.87074916E-13
  -7.30000019      -8.39439195E-13
  -7.25000000      -1.39973092E-12
  -7.19999981      -1.66197058E-12
  -7.15000010      -1.24138558E-12
  -7.09999990       1.74150204E-13
  -7.05000019       2.60133451E-12
  -7.00000000       5.53839396E-12
  -6.94999981       7.86127847E-12
  -6.90000010       7.97397565E-12
  -6.84999990       4.30099923E-12
  -6.80000019      -3.91239948E-12
  -6.75000000      -1.57060302E-11
  -6.69999981      -2.78066650E-11
  -6.65000010      -3.47971894E-11
  -6.59999990      -3.04148408E-11
  -6.55000019      -9.99092736E-12
  -6.50000000       2.65013914E-11
  -6.44999981       7.19012350E-11
  -6.40000010       1.11268918E-10
  -6.34999990       1.24527083E-10
  -6.30000019       9.27465882E-11
  -6.25000000       7.00982935E-12
  -6.19999981      -1.22903715E-10
  -6.15000010      -2.63971955E-10
  -6.09999990      -3.63433117E-10
  -6.05000019      -3.62395447E-10
  -6.00000000      -2.18022017E-10
  -5.94999981       7.16820769E-11
  -5.90000010       4.50105758E-10
  -5.84999990       8.01812894E-10
  -5.80000019       9.77015802E-10
  -5.75000000       8.40041925E-10
  -5.69999981       3.30489441E-10
  -5.65000010      -4.83992124E-10
  -5.59999990      -1.38869549E-09
  -5.55000019      -2.05701500E-09
  -5.50000000      -2.14458384E-09
  -5.44999981      -1.42395407E-09
  -5.40000010       8.22391322E-11
  -5.34999990       2.02569872E-09
  -5.30000019       3.76564868E-09
  -5.25000000       4.53379334E-09
  -5.19999981       3.70677933E-09
  -5.15000010       1.10907827E-09
  -5.09999990      -2.76871237E-09
  -5.05000019      -6.75347867E-09
  -5.00000000      -9.24690369E-09
  -4.94999981      -8.73866135E-09
  -4.90000010      -4.44740644E-09
  -4.84999990       3.13041926E-09
  -4.80000019       1.20141372E-08
  -4.75000000       1.90628189E-08
  -4.69999981       2.08611386E-08
  -4.65000010       1.49834190E-08
  -4.59999990       1.24810740E-09
  -4.55000019      -1.75330968E-08
  -4.50000000      -3.57496646E-08
  -4.44999981      -4.63223806E-08
  -4.40000010      -4.29731095E-08
  -4.34999990      -2.28217836E-08
  -4.30000019       1.15908145E-08
  -4.25000000       5.17728331E-08
  -4.19999981       8.48317256E-08
  -4.15000010       9.70557963E-08
  -4.09999990       7.87019445E-08
  -4.05000019       2.85129715E-08
  -4.00000000      -4.37645689E-08
  -3.95000005      -1.18255663E-07
  -3.90000010      -1.69689400E-07
  -3.84999990      -1.75143299E-07
  -3.79999995      -1.22667899E-07
  -3.75000000      -1.78789072E-08
  -3.70000005       1.14277718E-07
  -3.65000010       2.34224757E-07
  -3.59999990       2.98567301E-07
  -3.54999995       2.74416891E-07
  -3.50000000       1.52863009E-07
  -3.45000005      -4.33068656E-08
  -3.40000010      -2.61427346E-07
  -3.34999990      -4.31448882E-07
  -3.29999995      -4.86706199E-07
  -3.25000000      -3.87255653E-07
  -3.20000005      -1.38196668E-07
  -3.15000010       2.04154134E-07
  -3.09999990       5.42369605E-07
  -3.04999995       7.63526089E-07
  -3.00000000       7.74149271E-07
  -2.95000005       5.34207061E-07
  -2.90000010       7.86566048E-08
  -2.84999990      -4.82437031E-07
  -2.79999995      -9.88296733E-07
  -2.75000000      -1.27171006E-06
  -2.70000005      -1.21137748E-06
  -2.65000010      -7.76370484E-07
  -2.59999990      -4.73796753E-08
  -2.54999995       7.94813388E-07
  -2.50000000       1.51365919E-06
  -2.45000005       1.88341085E-06
  -2.40000010       1.75917990E-06
  -2.34999990       1.12878377E-06
  -2.29999995       1.28481688E-07
  -2.25000000      -9.85414999E-07
  -2.20000005      -1.90382207E-06
  -2.15000010      -2.35319021E-06
  -2.09999990      -2.17913998E-06
  -2.04999995      -1.39947929E-06
  -2.00000000      -2.08596973E-07
  -1.95000005       1.07074425E-06
  -1.89999998       2.07618837E-06
  -1.85000002       2.51015513E-06
  -1.79999995       2.22910580E-06
  -1.75000000       1.29062744E-06
  -1.70000005      -5.66958853E-08
  -1.64999998      -1.43876105E-06
  -1.60000002      -2.45840238E-06
  -1.54999995      -2.80550034E-06
  -1.50000000      -2.34342087E-06
  -1.45000005      -1.14793727E-06
  -1.39999998       5.10789278E-07
  -1.35000002       2.23599272E-06
  -1.29999995       3.60119998E-06
  -1.25000000       4.24932387E-06
  -1.20000005       3.96942914E-06
  -1.14999998       2.73611022E-06
  -1.10000002       7.08971015E-07
  -1.04999995      -1.79949768E-06
  -1.00000000      -4.37400922E-06
 -0.949999988      -6.55230588E-06
 -0.899999976      -7.88083798E-06
 -0.850000024      -7.97166649E-06
 -0.800000012      -6.56544216E-06
 -0.750000000      -3.60203126E-06
 -0.699999988       7.09598851E-07
 -0.649999976       5.84339205E-06
 -0.600000024       1.09603670E-05
 -0.550000012       1.49939524E-05
 -0.500000000       1.68299848E-05
 -0.449999988       1.55662165E-05
 -0.400000006       1.08014656E-05
 -0.349999994       2.87578951E-06
 -0.300000012      -7.02748366E-06
 -0.250000000      -1.69893174E-05
 -0.200000003      -2.46967757E-05
 -0.150000006      -2.79759879E-05
 -0.100000001      -2.54027545E-05
  -5.00000007E-02  -1.68267252E-05
   5.55111512E-16  -3.63586560E-06
   5.00000007E-02   1.13686710E-05
  0.100000001       2.45242081E-05
  0.150000006       3.21993321E-05
  0.200000003       3.18238526E-05
  0.250000000       2.27751316E-05
  0.300000012       6.83558528E-06
  0.349999994      -1.19819797E-05
  0.400000006      -2.82881265E-05
  0.449999988      -3.67018147E-05
  0.500000000      -3.34389770E-05
  0.550000012      -1.76687263E-05
  0.600000024       7.79282527E-06
  0.649999976       3.67473149E-05
  0.699999988       6.08949667E-05
  0.750000000       7.19025556E-05
  0.800000012       6.37737758E-05
  0.850000024       3.48906651E-05
  0.899999976      -1.08880895E-05
  0.949999988      -6.44918618E-05
   1.00000000      -1.13352136E-04
   1.04999995      -1.44260426E-04
   1.10000002      -1.46720311E-04
   1.14999998      -1.15948067E-04
   1.20000005      -5.46962656E-05
   1.25000000       2.66785573E-05
   1.29999995       1.12061716E-04
   1.35000002       1.83004682E-04
   1.39999998       2.22960254E-04
   1.45000005       2.21308132E-04
   1.50000000       1.76153379E-04
   1.54999995       9.51502007E-05
   1.60000002      -5.92337028E-06
   1.64999998      -1.06557651E-04
   1.70000005      -1.86090823E-04
   1.75000000      -2.28390665E-04
   1.79999995      -2.25518641E-04
   1.85000002      -1.79502837E-04
   1.89999998      -1.01807309E-04
   1.95000005      -1.06416073E-05
   2.00000000       7.32355256E-05
   2.04999995       1.31227396E-04
   2.09999990       1.51044558E-04
   2.15000010       1.29371765E-04
   2.20000005       7.25135178E-05
   2.25000000      -5.05422850E-06
   2.29999995      -8.38452615E-05
   2.34999990      -1.43520519E-04
   2.40000010      -1.67167222E-04
   2.45000005      -1.44857549E-04
   2.50000000      -7.58342067E-05
   2.54999995       3.10442483E-05
   2.59999990       1.58649971E-04
   2.65000010       2.84485985E-04
   2.70000005       3.84670944E-04
   2.75000000       4.38381743E-04
   2.79999995       4.32045927E-04
   2.84999990       3.62569786E-04
   2.90000010       2.38968874E-04
   2.95000005       8.19439665E-05
   3.00000000      -7.87733734E-05
   3.04999995      -2.09108533E-04
   3.09999990      -2.76748440E-04
   3.15000010      -2.57656066E-04
   3.20000005      -1.41729848E-04
   3.25000000       6.36874465E-05
   3.29999995       3.33486008E-04
   3.34999990       6.28136098E-04
   3.40000010       9.00432118E-04
   3.45000005       1.10454904E-03
   3.50000000       1.20566261E-03
   3.54999995       1.18805189E-03
   3.59999990       1.05974101E-03
   3.65000010       8.52355268E-04
   3.70000005       6.15868892E-04
   3.75000000       4.09091183E-04
   3.79999995       2.87787610E-04
   3.84999990       2.92996701E-04
   3.90000010       4.42185148E-04
   3.95000005       7.25330960E-04
   4.00000000       1.10694568E-03
   4.05000019       1.53368979E-03
   4.09999990       1.94593414E-03
   4.15000010       2.29069032E-03
   4.19999981       2.53301882E-03
   4.25000000       2.66339933E-03
   4.30000019       2.69951299E-03
   4.34999990       2.68219970E-03
   4.40000010       2.66667851E-03
   4.44999981       2.71113147E-03
   4.50000000       2.86521902E-03
   4.55000019       3.16093606E-03
   4.59999990       3.60751245E-03
   4.65000010       4.19104425E-03
   4.69999981       4.87847673E-03
   4.75000000       5.62472409E-03
   4.80000019       6.38127653E-03
   4.84999990       7.10465526E-03
   4.90000010       7.76340999E-03
   4.94999981       8.34291242E-03
   5.00000000       8.84767342E-03
   5.05000019       9.30130389E-03
   5.09999990       9.74431820E-03
   5.15000010       1.02300486E-02
   5.19999981       1.08188223E-02
   5.25000000       1.15706949E-02
   5.30000019       1.25372401E-02
   5.34999990       1.37533536E-02
   5.40000010       1.52304405E-02
   5.44999981       1.69526078E-02
   5.50000000       1.88773517E-02
   5.55000019       2.09415853E-02
   5.59999990       2.30727643E-02
   5.65000010       2.52035372E-02
   5.69999981       2.72871926E-02
   5.75000000       2.93104574E-02
   5.80000019       3.13003510E-02
   5.84999990       3.33228484E-02
   5.90000010       3.54729220E-02
   5.94999981       3.78575735E-02
   6.00000000       4.05754969E-02
   6.05000019       4.36979979E-02
   6.09999990       4.72559147E-02
   6.15000010       5.12357838E-02
   6.19999981       5.55865206E-02
   6.25000000       6.02350049E-02
   6.30000019       6.51067868E-02
   6.34999990       7.01467395E-02
   6.40000010       7.53345117E-02
   6.44999981       8.06910545E-02
   6.50000000       8.62750560E-02
   6.55000019       9.21705365E-02
   6.59999990       9.84696448E-02
   6.65000010      0.105255410    
   6.69999981      0.112588994    
   6.75000000      0.120504789    
   6.80000019      0.129013583    
   6.84999990      0.138112172    
   6.90000010      0.147795692    
   6.94999981      0.158068240    
   7.00000000      0.168948635    
   7.05000019      0.180469573    
   7.09999990      0.192671061    
   7.15000010      0.205590874    
   7.19999981      0.219255880    
   7.25000000      0.233677819    
   7.30000019      0.248855442    
   7.34999990      0.264783174    
   7.40000010      0.281463593    
   7.44999981      0.298920035    
   7.50000000      0.317205399    
   7.55000019      0.336403251    
   7.59999990      0.356621265    
   7.65000010      0.377977371    
   7.69999981      0.400582403    
   7.75000000      0.424523711    
   7.80000019      0.449854106    
   7.84999990      0.476589054    
   7.90000010      0.504712939    
   7.94999981      0.534192860    
   8.00000000      0.564996064    
   8.05000019      0.597107947    
   8.10000038      0.630544722    
   8.14999962      0.665359497    
   8.19999981      0.701639473    
   8.25000000      0.739497304    
   8.30000019      0.779056430    
   8.35000038      0.820436358    
   8.39999962      0.863739789    
   8.44999981      0.909044206    
   8.50000000      0.956400037    
   8.55000019       1.00583375    
   8.60000038       1.05735528    
   8.64999962       1.11096764    
   8.69999981       1.16667557    
   8.75000000       1.22449255    
   8.80000019       1.28444421    
   8.85000038       1.34656894    
   8.89999962       1.41091573    
   8.94999981       1.47754145    
   9.00000000       1.54650748    
   9.05000019       1.61787951    
   9.10000038       1.69172621    
   9.14999962       1.76812077    
   9.19999981       1.84714067    
   9.25000000       1.92886531    
   9.30000019       2.01337194    
   9.35000038       2.10072875    
   9.39999962       2.19098663    
   9.44999981       2.28417301    
   9.50000000       2.38028741    
   9.55000019       2.47930503    
   9.60000038       2.58118343    
   9.64999962       2.68587756    
   9.69999981       2.79335284    
   9.75000000       2.90360045    
   9.80000019       3.01664352    
   9.85000038       3.13253784    
   9.89999962       3.25136328    
   9.94999981       3.37320757    
   10.0000000       3.49814868    
   10.0500002       3.62623954    
   10.1000004       3.75749803    
   10.1499996       3.89190555    
   10.1999998       4.02941465    
   10.2500000       4.16996336    
   10.3000002       4.31348848    
   10.3500004       4.45993805    
   10.3999996       4.60927582    
   10.4499998       4.76148176    
   10.5000000       4.91654015    
   10.5500002       5.07443333    
   10.6000004       5.23512936    
   10.6499996       5.39857817    
   10.6999998       5.56471300    
   10.7500000       5.73345852    
   10.8000002       5.90474033    
   10.8500004       6.07849455    
   10.8999996       6.25467682    
   10.9499998       6.43325949    
   11.0000000       6.61422729    
   11.0500002       6.79756880    
   11.1000004       6.98325872    
   11.1499996       7.17125368    
   11.1999998       7.36148119    
   11.2500000       7.55383968    
   11.3000002       7.74820328    
   11.3500004       7.94442892    
   11.3999996       8.14236927    
   11.4499998       8.34188461    
   11.5000000       8.54284763    
   11.5500002       8.74515724    
   11.6000004       8.94873524    
   11.6499996       9.15352440    
   11.6999998       9.35947990    
   11.7500000       9.56656265    
   11.8000002       9.77472305    
   11.8500004       9.98389721    
   11.8999996       10.1939955    
   11.9499998       10.4049044    
   12.0000000       10.6164904    
   12.0500002       10.8286114    
   12.1000004       11.0411243    
   12.1499996       11.2538986    
   12.1999998       11.4668226    
   12.2500000       11.6798058    
   12.3000002       11.8927679    
   12.3500004       12.1056337    
   12.3999996       12.3183193    
   12.4499998       12.5307312    
   12.5000000       12.7427597    
   12.5500002       12.9542894    
   12.6000004       13.1652136    
   12.6499996       13.3754396    
   12.6999998       13.5849066    
   12.7500000       13.7935762    
   12.8000002       14.0014353    
   12.8500004       14.2084761    
   12.8999996       14.4146776    
   12.9499998       14.6199961    
   13.0000000       14.8243561    
   13.0500002       15.0276566    
   13.1000004       15.2297812    
   13.1499996       15.4306183    
   13.1999998       15.6300793    
   13.2500000       15.8281059    
   13.3000002       16.0246735    
   13.3500004       16.2197781    
   13.3999996       16.4134274    
   13.4499998       16.6056271    
   13.5000000       16.7963638    
   13.5500002       16.9856186    
   13.6000004       17.1733570    
   13.6499996       17.3595524    
   13.6999998       17.5441990    
   13.7500000       17.7273102    
   13.8000002       17.9089355    
   13.8500004       18.0891285    
   13.8999996       18.2679558    
   13.9499998       18.4454613    
   14.0000000       18.6216717    
   14.0500002       18.7965794    
   14.1000004       18.9701557    
   14.1499996       19.1423550    
   14.1999998       19.3131390    
   14.2500000       19.4824829    
   14.3000002       19.6503983    
   14.3500004       19.8169270    
   14.3999996       19.9821415    
   14.4499998       20.1461449    
   14.5000000       20.3090553    
   14.5500002       20.4709854    
   14.6000004       20.6320457    
   14.6499996       20.7923260    
   14.6999998       20.9518929    
   14.7500000       21.1107903    
   14.8000002       21.2690392    
   14.8500004       21.4266376    
   14.8999996       21.5835800    
   14.9499998       21.7398548    
   15.0000000       21.8954735    
   15.0500002       22.0504627    
   15.1000004       22.2048836    
   15.1499996       22.3588161    
   15.1999998       22.5123672    
   15.2500000       22.6656551    
   15.3000002       22.8187981    
   15.3500004       22.9719048    
   15.3999996       23.1250648    
   15.4499998       23.2783527    
   15.5000000       23.4318180    
   15.5500002       23.5854931    
   15.6000004       23.7393990    
   15.6499996       23.8935394    
   15.6999998       24.0479107    
   15.7500000       24.2025127    
   15.8000002       24.3573399    
   15.8500004       24.5123920    
   15.8999996       24.6676922    
   15.9499998       24.8232765    
   16.0000000       24.9792042    
   16.0499992       25.1355610    
   16.1000004       25.2924404    
   16.1499996       25.4499397    
   16.2000008       25.6081429    
   16.2500000       25.7671127    
   16.2999992       25.9268780    
   16.3500004       26.0874462    
   16.3999996       26.2487984    
   16.4500008       26.4109001    
   16.5000000       26.5737076    
   16.5499992       26.7371731    
   16.6000004       26.9012508    
   16.6499996       27.0658894    
   16.7000008       27.2310371    
   16.7500000       27.3966446    
   16.7999992       27.5626602    
   16.8500004       27.7290707    
   16.8999996       27.8958797    
   16.9500008       28.0631256    
   17.0000000       28.2308769    
   17.0499992       28.3992119    
   17.1000004       28.5681973    
   17.1499996       28.7378635    
   17.2000008       28.9081936    
   17.2500000       29.0790997    
   17.2999992       29.2504501    
   17.3500004       29.4220753    
   17.3999996       29.5937920    
   17.4500008       29.7654400    
   17.5000000       29.9368839    
   17.5499992       30.1080284    
   17.6000004       30.2787991    
   17.6499996       30.4491405    
   17.7000008       30.6189957    
   17.7500000       30.7883091    
   17.7999992       30.9570198    
   17.8500004       31.1250706    
   17.8999996       31.2924175    
   17.9500008       31.4590359    
   18.0000000       31.6249104    
   18.0499992       31.7900105    
   18.1000004       31.9542751    
   18.1499996       32.1175842    
   18.2000008       32.2797508    
   18.2500000       32.4405098    
   18.2999992       32.5995598    
   18.3500004       32.7565804    
   18.3999996       32.9112816    
   18.4500008       33.0634270    
   18.5000000       33.2128487    
   18.5499992       33.3594627    
   18.6000004       33.5032272    
   18.6499996       33.6441193    
   18.7000008       33.7821236    
   18.7500000       33.9171944    
   18.7999992       34.0492401    
   18.8500004       34.1781387    
   18.8999996       34.3037224    
   18.9500008       34.4257927    
   19.0000000       34.5441208    
   19.0499992       34.6584358    
   19.1000004       34.7684441    
   19.1499996       34.8738327    
   19.2000008       34.9742813    
   19.2500000       35.0694618    
   19.2999992       35.1591148    
   19.3500004       35.2430115    
   19.3999996       35.3210030    
   19.4500008       35.3930016    
   19.5000000       35.4589462    
   19.5499992       35.5187950    
   19.6000004       35.5724754    
   19.6499996       35.6198616    
   19.7000008       35.6607590    
   19.7500000       35.6949463    
   19.7999992       35.7221451    
   19.8500004       35.7420959    
   19.8999996       35.7545509    
   19.9500008       35.7592773    
   20.0000000       35.7560806    
   20.0499992       35.7447777    
   20.1000004       35.7251892    
   20.1499996       35.6971245    
   20.2000008       35.6604004    
   20.2500000       35.6148453    
   20.2999992       35.5603104    
   20.3500004       35.4966927    
   20.3999996       35.4239273    
   20.4500008       35.3419914    
   20.5000000       35.2508545    
   20.5499992       35.1504974    
   20.6000004       35.0408478    
   20.6499996       34.9218025    
   20.7000008       34.7932243    
   20.7500000       34.6549759    
   20.7999992       34.5069122    
   20.8500004       34.3489609    
   20.8999996       34.1810722    
   20.9500008       34.0032730    
   21.0000000       33.8156090    
   21.0499992       33.6181488    
   21.1000004       33.4109650    
   21.1499996       33.1941185    
   21.2000008       32.9676704    
   21.2500000       32.7316895    
   21.2999992       32.4862518    
   21.3500004       32.2314873    
   21.3999996       31.9675312    
   21.4500008       31.6945553    
   21.5000000       31.4127312    
   21.5499992       31.1222172    
   21.6000004       30.8231659    
   21.6499996       30.5157204    
   21.7000008       30.2000332    
   21.7500000       29.8762932    
   21.7999992       29.5447311    
   21.8500004       29.2056351    
   21.8999996       28.8593349    
   21.9500008       28.5061893    
   22.0000000       28.1465511    
   22.0499992       27.7807541    
   22.1000004       27.4091034    
   22.1499996       27.0318794    
   22.2000008       26.6493607    
   22.2500000       26.2618484    
   22.2999992       25.8696880    
   22.3500004       25.4732761    
   22.3999996       25.0730495    
   22.4500008       24.6694813    
   22.5000000       24.2630444    
   22.5499992       23.8541908    
   22.6000004       23.4433365    
   22.6499996       23.0308723    
   22.7000008       22.6171665    
   22.7500000       22.2025909    
   22.7999992       21.7875309    
   22.8500004       21.3724060    
   22.8999996       20.9576721    
   22.9500008       20.5437889    
   23.0000000       20.1312332    
   23.0499992       19.7204685    
   23.1000004       19.3119392    
   23.1499996       18.9060688    
   23.2000008       18.5032673    
   23.2500000       18.1039314    
   23.2999992       17.7084579    
   23.3500004       17.3172398    
   23.3999996       16.9306717    
   23.4500008       16.5491333    
   23.5000000       16.1729908    
   23.5499992       15.8025990    
   23.6000004       15.4383039    
   23.6499996       15.0804462    
   23.7000008       14.7293653    
   23.7500000       14.3854074    
   23.7999992       14.0489159    
   23.8500004       13.7202272    
   23.8999996       13.3996553    
   23.9500008       13.0874796    
   24.0000000       12.7839384    
   24.0499992       12.4892292    
   24.1000004       12.2035112    
   24.1499996       11.9269190    
   24.2000008       11.6595688    
   24.2500000       11.4015694    
   24.2999992       11.1530266    
   24.3500004       10.9140425    
   24.3999996       10.6847143    
   24.4500008       10.4651403    
   24.5000000       10.2554159    
   24.5499992       10.0556364    
   24.6000004       9.86589622    
   24.6499996       9.68628311    
   24.7000008       9.51686382    
   24.7500000       9.35766506    
   24.7999992       9.20866203    
   24.8500004       9.06976700    
   24.8999996       8.94082642    
   24.9500008       8.82164192    
   25.0000000       8.71198845    
   25.0499992       8.61164951    
   25.1000004       8.52043438    
   25.1499996       8.43819904    
   25.2000008       8.36483765    
   25.2500000       8.30026150    
   25.2999992       8.24438477    
   25.3500004       8.19709015    
   25.3999996       8.15821838    
   25.4500008       8.12755871    
   25.5000000       8.10487366    
   25.5499992       8.08990002    
   25.6000004       8.08237934    
   25.6499996       8.08205891    
   25.7000008       8.08869267    
   25.7500000       8.10202599    
   25.7999992       8.12178421    
   25.8500004       8.14766216    
   25.8999996       8.17932510    
   25.9500008       8.21642303    
   26.0000000       8.25861740    
   26.0499992       8.30560398    
   26.1000004       8.35712910    
   26.1499996       8.41298771    
   26.2000008       8.47300339    
   26.2500000       8.53700352    
   26.2999992       8.60478306    
   26.3500004       8.67608547    
   26.3999996       8.75059986    
   26.4500008       8.82798386    
   26.5000000       8.90788555    
   26.5499992       8.98998451    
   26.6000004       9.07400608    
   26.6499996       9.15973282    
   26.7000008       9.24698544    
   26.7500000       9.33559418    
   26.7999992       9.42537308    
   26.8500004       9.51609707    
   26.8999996       9.60750675    
   26.9500008       9.69932842    
   27.0000000       9.79129887    
   27.0499992       9.88320255    
   27.1000004       9.97487926    
   27.1499996       10.0662279    
   27.2000008       10.1571779    
   27.2500000       10.2476540    
   27.2999992       10.3375454    
   27.3500004       10.4266901    
   27.3999996       10.5148783    
   27.4500008       10.6018763    
   27.5000000       10.6874695    
   27.5499992       10.7714911    
   27.6000004       10.8538475    
   27.6499996       10.9345169    
   27.7000008       11.0135174    
   27.7500000       11.0908833    
   27.7999992       11.1666222    
   27.8500004       11.2406960    
   27.8999996       11.3130207    
   27.9500008       11.3834820    
   28.0000000       11.4519577    
   28.0499992       11.5183544    
   28.1000004       11.5826130    
   28.1499996       11.6447124    
   28.2000008       11.7046595    
   28.2500000       11.7624617    
   28.2999992       11.8181219    
   28.3500004       11.8716202    
   28.3999996       11.9229364    
   28.4500008       11.9720535    
   28.5000000       12.0189857    
   28.5499992       12.0637817    
   28.6000004       12.1065197    
   28.6499996       12.1472979    
   28.7000008       12.1862078    
   28.7500000       12.2233114    
   28.7999992       12.2586374    
   28.8500004       12.2921810    
   28.8999996       12.3239231    
   28.9500008       12.3538494    
   29.0000000       12.3819685    
   29.0499992       12.4083157    
   29.1000004       12.4329424    
   29.1499996       12.4559031    
   29.2000008       12.4772377    
   29.2500000       12.4969645    
   29.2999992       12.5150795    
   29.3500004       12.5315866    
   29.3999996       12.5465097    
   29.4500008       12.5599165    
   29.5000000       12.5719223    
   29.5499992       12.5826750    
   29.6000004       12.5923300    
   29.6499996       12.6010227    
   29.7000008       12.6088381    
   29.7500000       12.6158085    
   29.7999992       12.6219215    
   29.8500004       12.6271467    
   29.8999996       12.6314583    
   29.9500008       12.6348600    
   30.0000000       12.6373863    
   30.0499992       12.6390858    
   30.1000004       12.6400032    
   30.1499996       12.6401625    
   30.2000008       12.6395550    
   30.2500000       12.6381540    
   30.2999992       12.6359491    
   30.3500004       12.6329699    
   30.3999996       12.6293087    
   30.4500008       12.6251230    
   30.5000000       12.6206093    
   30.5499992       12.6159506    
   30.6000004       12.6112757    
   30.6499996       12.6066170    
   30.7000008       12.6019115    
   30.7500000       12.5970211    
   30.7999992       12.5917835    
   30.8500004       12.5860720    
   30.8999996       12.5798311    
   30.9500008       12.5730991    
   31.0000000       12.5659838    
   31.0499992       12.5586243    
   31.1000004       12.5511408    
   31.1499996       12.5435963    
   31.2000008       12.5359879    
   31.2500000       12.5282688    
   31.2999992       12.5203838    
   31.3500004       12.5123158    
   31.3999996       12.5041075    
   31.4500008       12.4958639    
   31.5000000       12.4877262    
   31.5499992       12.4798117    
   31.6000004       12.4721842    
   31.6499996       12.4648180    
   31.7000008       12.4576111    
   31.7500000       12.4504147    
   31.7999992       12.4430885    
   31.8500004       12.4355402    
   31.8999996       12.4277601    
   31.9500008       12.4198103    
   32.0000000       12.4117956    
   32.0499992       12.4038191    
   32.0999985       12.3959455    
   32.1500015       12.3881798    
   32.2000008       12.3804836    
   32.2500000       12.3728008    
   32.2999992       12.3651018    
   32.3499985       12.3574076    
   32.4000015       12.3497953    
   32.4500008       12.3423738    
   32.5000000       12.3352356    
   32.5499992       12.3284197    
   32.5999985       12.3218832    
   32.6500015       12.3155050    
   32.7000008       12.3091211    
   32.7500000       12.3025808    
   32.7999992       12.2957926    