  -10.0000000       0.00000000    
  -9.94999981       0.00000000    
  -9.89999962       0.00000000    
  -9.85000038       0.00000000    
  -9.80000019       0.00000000    
  -9.75000000       0.00000000    
  -9.69999981       0.00000000    
  -9.64999962       0.00000000    
  -9.60000038       0.00000000    
  -9.55000019       6.38236256E-31
  -9.50000000       6.12290820E-30
  -9.44999981       6.95762716E-29
  -9.39999962       7.46150568E-28
  -9.35000038       5.44430852E-27
  -9.30000019       2.77109333E-26
  -9.25000000       1.04612706E-25
  -9.19999981       3.06194438E-25
  -9.14999962       7.18524538E-25
  -9.10000038       1.41178640E-24
  -9.05000019       2.55339011E-24
  -9.00000000       5.02136906E-24
  -8.94999981       1.16375735E-23
  -8.89999962       2.75737904E-23
  -8.85000038       5.52657522E-23
  -8.80000019       7.69282829E-23
  -8.75000000       2.41909782E-23
  -8.69999981      -2.40596391E-22
  -8.64999962      -8.64205427E-22
  -8.60000038      -1.77001242E-21
  -8.55000019      -2.22862834E-21
  -8.50000000      -4.61330755E-22
  -8.44999981       6.06629058E-21
  -8.39999962       1.86787221E-20
  -8.35000038       3.32732594E-20
  -8.30000019       3.51325934E-20
  -8.25000000      -2.52231724E-21
  -8.19999981      -1.08124610E-19
  -8.14999962      -2.81959479E-19
  -8.10000038      -4.49248925E-19
  -8.05000019      -4.20192707E-19
  -8.00000000       9.12346676E-20
  -7.94999981       1.32420180E-18
  -7.90000010       3.17005824E-18
  -7.84999990       4.78498094E-18
  -7.80000019       4.35887332E-18
  -7.75000000      -5.54301742E-19
  -7.69999981      -1.17376184E-17
  -7.65000010      -2.79780376E-17
  -7.59999990      -4.24118330E-17
  -7.55000019      -4.13136416E-17
  -7.50000000      -6.87313180E-18
  -7.44999981       7.38695713E-17
  -7.40000010       1.94139475E-16
  -7.34999990       3.11367088E-16
  -7.30000019       3.40224309E-16
  -7.25000000       1.68419253E-16
  -7.19999981      -2.94031341E-16
  -7.15000010      -1.03413818E-15
  -7.09999990      -1.84847958E-15
  -7.05000019      -2.29908141E-15
  -7.00000000      -1.77737328E-15
  -6.94999981       2.73252591E-16
  -6.90000010       3.98226018E-15
  -6.84999990       8.62639275E-15
  -6.80000019       1.23635097E-14
  -6.75000000       1.23991215E-14
  -6.69999981       5.81028899E-15
  -6.65000010      -8.95854402E-15
  -6.59999990      -3.02748583E-14
  -6.55000019      -5.19312444E-14
  -6.50000000      -6.32189681E-14
  -6.44999981      -5.13767970E-14
  -6.40000010      -6.66525610E-15
  -6.34999990       7.08828951E-14
  -6.30000019       1.65407876E-13
  -6.25000000       2.43276916E-13
  -6.19999981       2.58574737E-13
  -6.15000010       1.67569626E-13
  -6.09999990      -4.98194015E-14
  -6.05000019      -3.67941463E-13
  -6.00000000      -7.02718645E-13
  -5.94999981      -9.19000119E-13
  -5.90000010      -8.64572519E-13
  -5.84999990      -4.28319137E-13
  -5.80000019       3.92216641E-13
  -5.75000000       1.43967314E-12
  -5.69999981       2.39211905E-12
  -5.65000010       2.82706822E-12
  -5.59999990       2.35554761E-12
  -5.55000019       7.96996638E-13
  -5.50000000      -1.66416631E-12
  -5.44999981      -4.41496492E-12
  -5.40000010      -6.50619792E-12
  -5.34999990      -6.91925727E-12
  -5.30000019      -4.95654733E-12
  -5.25000000      -6.31843211E-13
  -5.19999981       5.10748431E-12
  -5.15000010       1.04799208E-11
  -5.09999990       1.33559899E-11
  -5.05000019       1.20469442E-11
  -5.00000000       6.14758158E-12
  -4.94999981      -2.92491920E-12
  -4.90000010      -1.20396974E-11
  -4.84999990      -1.72753218E-11
  -4.80000019      -1.55076368E-11
  -4.75000000      -6.15150899E-12
  -4.69999981       7.71053967E-12
  -4.65000010       1.95741080E-11
  -4.59999990       2.15331468E-11
  -4.55000019       7.79203351E-12
  -4.50000000      -2.14238263E-11
  -4.44999981      -5.72680410E-11
  -4.40000010      -8.27605137E-11
  -4.34999990      -7.74201397E-11
  -4.30000019      -2.56235207E-11
  -4.25000000       7.35912720E-11
  -4.19999981       1.99122760E-10
  -4.15000010       3.07122744E-10
  -4.09999990       3.40111689E-10
  -4.05000019       2.45934439E-10
  -4.00000000       2.40115957E-12
  -3.95000005      -3.60537378E-10
  -3.90000010      -7.51275431E-10
  -3.84999990      -1.02844955E-09
  -3.79999995      -1.03745013E-09
  -3.75000000      -6.65959843E-10
  -3.70000005       9.66354774E-11
  -3.65000010       1.11787490E-09
  -3.59999990       2.12114815E-09
  -3.54999995       2.73891221E-09
  -3.50000000       2.61785238E-09
  -3.45000005       1.55307300E-09
  -3.40000010      -3.89729998E-10
  -3.34999990      -2.81317281E-09
  -3.29999995      -5.02910025E-09
  -3.25000000      -6.21661123E-09
  -3.20000005      -5.67346570E-09
  -3.15000010      -3.09629145E-09
  -3.09999990       1.20324783E-09
  -3.04999995       6.24096286E-09
  -3.00000000       1.05236904E-08
  -2.95000005       1.24330493E-08
  -2.90000010       1.07496057E-08
  -2.84999990       5.16791809E-09
  -2.79999995      -3.38019279E-09
  -2.75000000      -1.27525341E-08
  -2.70000005      -2.00456363E-08
  -2.65000010      -2.24063719E-08
  -2.59999990      -1.80061264E-08
  -2.54999995      -6.87681467E-09
  -2.50000000       8.70861960E-09
  -2.45000005       2.45375773E-08
  -2.40000010       3.54781449E-08
  -2.34999990       3.70143205E-08
  -2.29999995       2.68739306E-08
  -2.25000000       6.21236129E-09
  -2.20000005      -2.01351416E-08
  -2.15000010      -4.45919071E-08
  -2.09999990      -5.88684124E-08
  -2.04999995      -5.65892755E-08
  -2.00000000      -3.57350842E-08
  -1.95000005      -4.21519417E-11
  -1.89999998       4.12884020E-08
  -1.85000002       7.57539595E-08
  -1.79999995       9.11612830E-08
  -1.75000000       7.96995536E-08
  -1.70000005       4.11773158E-08
  -1.64999998      -1.57929900E-08
  -1.60000002      -7.53685612E-08
  -1.54999995      -1.18683886E-07
  -1.50000000      -1.29657735E-07
  -1.45000005      -1.00673113E-07
  -1.39999998      -3.62032821E-08
  -1.35000002       4.71148454E-08
  -1.29999995       1.24458026E-07
  -1.25000000       1.70035463E-07
  -1.20000005       1.65532171E-07
  -1.14999998       1.07082315E-07
  -1.10000002       8.23341484E-09
  -1.04999995      -1.02593077E-07
  -1.00000000      -1.89949461E-07
 -0.949999988      -2.22487557E-07
 -0.899999976      -1.83966463E-07
 -0.850000024      -8.03799338E-08
 -0.800000012       5.96766725E-08
 -0.750000000       1.92299979E-07
 -0.699999988       2.71606552E-07
 -0.649999976       2.65206552E-07
 -0.600000024       1.66746801E-07
 -0.550000012       8.77263429E-10
 -0.500000000      -1.81920086E-07
 -0.449999988      -3.19987009E-07
 -0.400000006      -3.60621328E-07
 -0.349999994      -2.79326940E-07
 -0.300000012      -9.14087934E-08
 -0.250000000       1.48967459E-07
 -0.200000003       3.63333413E-07
 -0.150000006       4.73567042E-07
 -0.100000001       4.29201805E-07
  -5.00000007E-02   2.28198701E-07
   5.55111512E-16  -7.67882682E-08
   5.00000007E-02  -3.90487742E-07
  0.100000001      -6.03328317E-07
  0.150000006      -6.28022406E-07
  0.200000003      -4.32665985E-07
  0.250000000      -5.84701780E-08
  0.300000012       3.85797307E-07
  0.349999994       7.53430299E-07
  0.400000006       9.06021398E-07
  0.449999988       7.62299351E-07
  0.500000000       3.33067675E-07
  0.550000012      -2.71349961E-07
  0.600000024      -8.66861569E-07
  0.649999976      -1.24954738E-06
  0.699999988      -1.26260420E-06
  0.750000000      -8.55000337E-07
  0.800000012      -1.11024384E-07
  0.850000024       7.62490970E-07
  0.899999976       1.49160701E-06
  0.949999988       1.81934831E-06
   1.00000000       1.59323940E-06
   1.04999995       8.27337544E-07
   1.10000002      -2.84678180E-07
   1.14999998      -1.41482008E-06
   1.20000005      -2.19541471E-06
   1.25000000      -2.33657011E-06
   1.29999995      -1.72976604E-06
   1.35000002      -5.01811826E-07
   1.39999998       1.00359478E-06
   1.45000005       2.31771264E-06
   1.50000000       2.98879604E-06
   1.54999995       2.73233081E-06
   1.60000002       1.54079555E-06
   1.64999998      -2.86969851E-07
   1.70000005      -2.21395590E-06
   1.75000000      -3.61750381E-06
   1.79999995      -3.98408110E-06
   1.85000002      -3.08665562E-06
   1.89999998      -1.08538654E-06
   1.95000005       1.48789172E-06
   2.00000000       3.86659622E-06
   2.04999995       5.27402335E-06
   2.09999990       5.17077251E-06
   2.15000010       3.44733371E-06
   2.20000005       4.95572976E-07
   2.25000000      -2.87352782E-06
   2.29999995      -5.65172695E-06
   2.34999990      -6.93506081E-06
   2.40000010      -6.21519484E-06
   2.45000005      -3.56739565E-06
   2.50000000       3.31779631E-07
   2.54999995       4.37441759E-06
   2.59999990       7.33774459E-06
   2.65000010       8.25680218E-06
   2.70000005       6.73934483E-06
   2.75000000       3.12016368E-06
   2.79999995      -1.60326260E-06
   2.84999990      -6.04599063E-06
   2.90000010      -8.84657402E-06
   2.95000005      -9.09134542E-06
   3.00000000      -6.61864033E-06
   3.04999995      -2.10066651E-06
   3.09999990       3.13390206E-06
   3.15000010       7.49270657E-06
   3.20000005       9.61294882E-06
   3.25000000       8.80221705E-06
   3.29999995       5.28318151E-06
   3.34999990       1.54252163E-07
   3.40000010      -4.93460311E-06
   3.45000005      -8.29973033E-06
   3.50000000      -8.77680759E-06
   3.54999995      -6.13070051E-06
   3.59999990      -1.18060927E-06
   3.65000010       4.41628390E-06
   3.70000005       8.67174003E-06
   3.75000000       9.91552315E-06
   3.79999995       7.38314384E-06
   3.84999990       1.54620307E-06
   3.90000010      -5.93963341E-06
   3.95000005      -1.26785326E-05
   4.00000000      -1.62544329E-05
   4.05000019      -1.50153655E-05
   4.09999990      -8.67660401E-06
   4.15000010       1.46094828E-06
   4.19999981       1.27720123E-05
   4.25000000       2.19981921E-05
   4.30000019       2.61828991E-05
   4.34999990       2.35781717E-05
   4.40000010       1.42462422E-05
   4.44999981       1.59070296E-07
   4.50000000      -1.52569264E-05
   4.55000019      -2.80177683E-05
   4.59999990      -3.46703819E-05
   4.65000010      -3.32579366E-05
   4.69999981      -2.38771609E-05
   4.75000000      -8.65984839E-06
   4.80000019       8.81847518E-06
   4.84999990       2.45278788E-05
   4.90000010       3.50764640E-05
   4.94999981       3.85807980E-05
   5.00000000       3.50599439E-05
   5.05000019       2.62476715E-05
   5.09999990       1.48998897E-05
   5.15000010       3.83069346E-06
   5.19999981      -5.00781016E-06
   5.25000000      -1.11070976E-05
   5.30000019      -1.54662539E-05
   5.34999990      -2.01331477E-05
   5.40000010      -2.73921414E-05
   5.44999981      -3.88855187E-05
   5.50000000      -5.49765173E-05
   5.55000019      -7.45778525E-05
   5.59999990      -9.55076466E-05
   5.65000010      -1.15249248E-04
   5.69999981      -1.31845416E-04
   5.75000000      -1.44603080E-04
   5.80000019      -1.54343375E-04
   5.84999990      -1.63087199E-04
   5.90000010      -1.73267996E-04
   5.94999981      -1.86742298E-04
   6.00000000      -2.03961143E-04
   6.05000019      -2.23633571E-04
   6.09999990      -2.43060582E-04
   6.15000010      -2.59091437E-04
   6.19999981      -2.69424432E-04
   6.25000000      -2.73823942E-04
   6.30000019      -2.74809630E-04
   6.34999990      -2.77508923E-04
   6.40000010      -2.88616080E-04
   6.44999981      -3.14692967E-04
   6.50000000      -3.60287231E-04
   6.55000019      -4.26446146E-04
   6.59999990      -5.10129146E-04
   6.65000010      -6.04779925E-04
   6.69999981      -7.01976940E-04
   6.75000000      -7.93741434E-04
   6.80000019      -8.74857185E-04
   6.84999990      -9.44511325E-04
   6.90000010      -1.00674224E-03
   6.94999981      -1.06951350E-03
   7.00000000      -1.14264095E-03
   7.05000019      -1.23515376E-03
   7.09999990      -1.35285698E-03
   7.15000010      -1.49682723E-03
   7.19999981      -1.66330882E-03
   7.25000000      -1.84507202E-03
   7.30000019      -2.03385577E-03
   7.34999990      -2.22319155E-03
   7.40000010      -2.41077435E-03
   7.44999981      -2.59968149E-03
   7.50000000      -2.79806484E-03
   7.55000019      -3.01740528E-03
   7.59999990      -3.26982932E-03
   7.65000010      -3.56527278E-03
   7.69999981      -3.90931126E-03
   7.75000000      -4.30226745E-03
   7.80000019      -4.73981909E-03
   7.84999990      -5.21488348E-03
   7.90000010      -5.72017534E-03
   7.94999981      -6.25065248E-03
   8.00000000      -6.80513307E-03
   8.05000019      -7.38663506E-03
   8.10000038      -8.00143275E-03
   8.14999962      -8.65720958E-03
   8.19999981      -9.36099049E-03
   8.25000000      -1.01176072E-02
   8.30000019      -1.09292325E-02
   8.35000038      -1.17962118E-02
   8.39999962      -1.27189131E-02
   8.44999981      -1.37000112E-02
   8.50000000      -1.47463959E-02
   8.55000019      -1.58699732E-02
   8.60000038      -1.70869436E-02
   8.64999962      -1.84156131E-02
   8.69999981      -1.98732018E-02
   8.75000000      -2.14725770E-02
   8.80000019      -2.32197903E-02
   8.85000038      -2.51132697E-02
   8.89999962      -2.71449815E-02
   8.94999981      -2.93034278E-02
   9.00000000      -3.15777585E-02
   9.05000019      -3.39619704E-02
   9.10000038      -3.64581048E-02
   9.14999962      -3.90775874E-02
   9.19999981      -4.18403223E-02
   9.25000000      -4.47717607E-02
   9.30000019      -4.78987135E-02
   9.35000038      -5.12450002E-02
   9.39999962      -5.48280925E-02
   9.44999981      -5.86576723E-02
   9.50000000      -6.27364442E-02
   9.55000019      -6.70630336E-02
   9.60000038      -7.16361851E-02
   9.64999962      -7.64590278E-02
   9.69999981      -8.15423727E-02
   9.75000000      -8.69060680E-02
   9.80000019      -9.25778896E-02
   9.85000038      -9.85903740E-02
   9.89999962     -0.104976237    
   9.94999981     -0.111763544    
   10.0000000     -0.118972033    
   10.0500002     -0.126611397    
   10.1000004     -0.134682134    
   10.1499996     -0.143178910    
   10.1999998     -0.152095482    
   10.2500000     -0.161430150    
   10.3000002     -0.171190292    
   10.3500004     -0.181394771    
   10.3999996     -0.192073524    
   10.4499998     -0.203264475    
   10.5000000     -0.215008229    
   10.5500002     -0.227342173    
   10.6000004     -0.240295216    
   10.6499996     -0.253884971    
   10.6999998     -0.268117905    
   10.7500000     -0.282993019    
   10.8000002     -0.298507959    
   10.8500004     -0.314666122    
   10.8999996     -0.331482768    
   10.9499998     -0.348988295    
   11.0000000     -0.367227733    
   11.0500002     -0.386255503    
   11.1000004     -0.406127274    
   11.1499996     -0.426890373    
   11.1999998     -0.448575407    
   11.2500000     -0.471191525    
   11.3000002     -0.494727015    
   11.3500004     -0.519155085    
   11.3999996     -0.544444084    
   11.4499998     -0.570569396    
   11.5000000     -0.597523808    
   11.5500002     -0.625323415    
   11.6000004     -0.654007554    
   11.6499996     -0.683631897    
   11.6999998     -0.714257300    
   11.7500000     -0.745936453    
   11.8000002     -0.778702974    
   11.8500004     -0.812565267    
   11.8999996     -0.847507656    
   11.9499998     -0.883498192    
   12.0000000     -0.920500934    
   12.0500002     -0.958489001    
   12.1000004     -0.997455120    
   12.1499996      -1.03741539    
   12.1999998      -1.07840621    
   12.2500000      -1.12047374    
   12.3000002      -1.16366076    
   12.3500004      -1.20799255    
   12.3999996      -1.25346804    
   12.4499998      -1.30005777    
   12.5000000      -1.34770930    
   12.5500002      -1.39635956    
   12.6000004      -1.44594932    
   12.6499996      -1.49643564    
   12.6999998      -1.54779959    
   12.7500000      -1.60004544    
   12.8000002      -1.65319347    
   12.8500004      -1.70726657    
   12.8999996      -1.76227689    
   12.9499998      -1.81821477    
   13.0000000      -1.87504506    
   13.0500002      -1.93270838    
   13.1000004      -1.99113214    
   13.1499996      -2.05024195    
   13.1999998      -2.10997486    
   13.2500000      -2.17028618    
   13.3000002      -2.23115110    
   13.3500004      -2.29255867    
   13.3999996      -2.35450172    
   13.4499998      -2.41696429    
   13.5000000      -2.47991276    
   13.5500002      -2.54329109    
   13.6000004      -2.60702372    
   13.6499996      -2.67102265    
   13.6999998      -2.73520017    
   13.7500000      -2.79947758    
   13.8000002      -2.86379147    
   13.8500004      -2.92809629    
   13.8999996      -2.99235582    
   13.9499998      -3.05653548    
   14.0000000      -3.12059093    
   14.0500002      -3.18446136    
   14.1000004      -3.24806786    
   14.1499996      -3.31131864    
   14.1999998      -3.37411880    
   14.2500000      -3.43638062    
   14.3000002      -3.49803591    
   14.3500004      -3.55903864    
   14.3999996      -3.61936092    
   14.4499998      -3.67898536    
   14.5000000      -3.73788953    
   14.5500002      -3.79603362    
   14.6000004      -3.85334921    
   14.6499996      -3.90973997    
   14.6999998      -3.96508789    
   14.7500000      -4.01926756    
   14.8000002      -4.07216167    
   14.8500004      -4.12367821    
   14.8999996      -4.17375803    
   14.9499998      -4.22237682    
   15.0000000      -4.26953650    
   15.0500002      -4.31524897    
   15.1000004      -4.35952044    
   15.1499996      -4.40233755    
   15.1999998      -4.44365883    
   15.2500000      -4.48341370    
   15.3000002      -4.52151489    
   15.3500004      -4.55786896    
   15.3999996      -4.59239340    
   15.4499998      -4.62502623    
   15.5000000      -4.65573406    
   15.5500002      -4.68450975    
   15.6000004      -4.71136475    
   15.6499996      -4.73632002    
   15.6999998      -4.75939322    
   15.7500000      -4.78059196    
   15.8000002      -4.79990768    
   15.8500004      -4.81732082    
   15.8999996      -4.83280182    
   15.9499998      -4.84632111    
   16.0000000      -4.85785484    
   16.0499992      -4.86738825    
   16.1000004      -4.87491846    
   16.1499996      -4.88045168    
   16.2000008      -4.88400030    
   16.2500000      -4.88558102    
   16.2999992      -4.88521194    
   16.3500004      -4.88291407    
   16.3999996      -4.87871170    
   16.4500008      -4.87263584    
   16.5000000      -4.86472750    
   16.5499992      -4.85503578    
   16.6000004      -4.84361839    
   16.6499996      -4.83053446    
   16.7000008      -4.81583881    
   16.7500000      -4.79957199    
   16.7999992      -4.78176308    
   16.8500004      -4.76242399    
   16.8999996      -4.74155712    
   16.9500008      -4.71916485    
   17.0000000      -4.69526148    
   17.0499992      -4.66988182    
   17.1000004      -4.64308548    
   17.1499996      -4.61495829    
   17.2000008      -4.58559990    
   17.2500000      -4.55511570    
   17.2999992      -4.52359819    
   17.3500004      -4.49112225    
   17.3999996      -4.45773697    
   17.4500008      -4.42347193    
   17.5000000      -4.38834620    
   17.5499992      -4.35238409    
   17.6000004      -4.31562376    
   17.6499996      -4.27812386    
   17.7000008      -4.23996067    
   17.7500000      -4.20121908    
   17.7999992      -4.16197681    
   17.8500004      -4.12229538    
   17.8999996      -4.08221388    
   17.9500008      -4.04175329    
   18.0000000      -4.00092697    
   18.0499992      -3.95975804    
   18.1000004      -3.91828966    
   18.1499996      -3.87659502    
   18.2000008      -3.83477211    
   18.2500000      -3.79292870    
   18.2999992      -3.75116706    
   18.3500004      -3.70956492    
   18.3999996      -3.66816497    
   18.4500008      -3.62697744    
   18.5000000      -3.58599067    
   18.5499992      -3.54518795    
   18.6000004      -3.50456548    
   18.6499996      -3.46414137    
   18.7000008      -3.42395425    
   18.7500000      -3.38405490    
   18.7999992      -3.34449148    
   18.8500004      -3.30529761    
   18.8999996      -3.26648879    
   18.9500008      -3.22806954    
   19.0000000      -3.19004750    
   19.0499992      -3.15244985    
   19.1000004      -3.11533427    
   19.1499996      -3.07878399    
   19.2000008      -3.04289484    
   19.2500000      -3.00774908    
   19.2999992      -2.97338963    
   19.3500004      -2.93980718    
   19.3999996      -2.90693855    
   19.4500008      -2.87468672    
   19.5000000      -2.84295249    
   19.5499992      -2.81166649    
   19.6000004      -2.78081107    
   19.6499996      -2.75042534    
   19.7000008      -2.72058773    
   19.7500000      -2.69138718    
   19.7999992      -2.66289258    
   19.8500004      -2.63512850    
   19.8999996      -2.60807419    
   19.9500008      -2.58167887    
   20.0000000      -2.55589008    
   20.0499992      -2.53068280    
   20.1000004      -2.50607467    
   20.1499996      -2.48212266    
   20.2000008      -2.45889878    
   20.2500000      -2.43645740    
   20.2999992      -2.41480374    
   20.3500004      -2.39388013    
   20.3999996      -2.37357736    
   20.4500008      -2.35376668    
   20.5000000      -2.33433890    
   20.5499992      -2.31524134    
   20.6000004      -2.29649258    
   20.6499996      -2.27817106    
   20.7000008      -2.26038051    
   20.7500000      -2.24320698    
   20.7999992      -2.22668600    
   20.8500004      -2.21078992    
   20.8999996      -2.19544387    
   20.9500008      -2.18056107    
   21.0000000      -2.16608667    
   21.0499992      -2.15202451    
   21.1000004      -2.13843846    
   21.1499996      -2.12542439    
   21.2000008      -2.11306334    
   21.2500000      -2.10137415    
   21.2999992      -2.09028840    
   21.3500004      -2.07965684    
   21.3999996      -2.06929684    
   21.4500008      -2.05905318    
   21.5000000      -2.04886007    
   21.5499992      -2.03877258    
   21.6000004      -2.02895594    
   21.6499996      -2.01963353    
   21.7000008      -2.01101160    
   21.7500000      -2.00320601    
   21.7999992      -1.99620342    
   21.8500004      -1.98986816    
   21.8999996      -1.98399448    
   21.9500008      -1.97838664    
   22.0000000      -1.97293150    
   22.0499992      -1.96764195    
   22.1000004      -1.96264911    
   22.1499996      -1.95815015    
   22.2000008      -1.95432997    
   22.2500000      -1.95129073    
   22.2999992      -1.94901848    
   22.3500004      -1.94739830    
   22.3999996      -1.94627202    
   22.4500008      -1.94551682    
   22.5000000      -1.94511199    
   22.5499992      -1.94516385    
   22.6000004      -1.94587910    
   22.6499996      -1.94749498    
   22.7000008      -1.95019603    
   22.7500000      -1.95404935    
   22.7999992      -1.95898592    
   22.8500004      -1.96483862    
   22.8999996      -1.97141993    
   22.9500008      -1.97861230    
   23.0000000      -1.98643112    
   23.0499992      -1.99503708    
   23.1000004      -2.00469279    
   23.1499996      -2.01567626    
   23.2000008      -2.02819228    
   23.2500000      -2.04231310    
   23.2999992      -2.05797648    
   23.3500004      -2.07504129    
   23.3999996      -2.09337568    
   23.4500008      -2.11294746    
   23.5000000      -2.13387299    
   23.5499992      -2.15640640    
   23.6000004      -2.18087101    
   23.6499996      -2.20755863    
   23.7000008      -2.23664093    
   23.7500000      -2.26812887    
   23.7999992      -2.30189490    
   23.8500004      -2.33775568    
   23.8999996      -2.37558126    
   23.9500008      -2.41538548    
   24.0000000      -2.45736027    
   24.0499992      -2.50184226    
   24.1000004      -2.54922032    
   24.1499996      -2.59982276    
   24.2000008      -2.65383029    
   24.2500000      -2.71124697    
   24.2999992      -2.77195001    
   24.3500004      -2.83578753    
   24.3999996      -2.90269470    
   24.4500008      -2.97277427    
   24.5000000      -3.04631138    
   24.5499992      -3.12371016    
   24.6000004      -3.20538259    
   24.6499996      -3.29162598    
   24.7000008      -3.38254428    
   24.7500000      -3.47805023    
   24.7999992      -3.57793784    
   24.8500004      -3.68200922    
   24.8999996      -3.79019785    
   24.9500008      -3.90264606    
   25.0000000      -4.01969719    
   25.0499992      -4.14181232    
   25.1000004      -4.26943636    
   25.1499996      -4.40287352    
   25.2000008      -4.54221630    
   25.2500000      -4.68735838    
   25.2999992      -4.83808422    
   25.3500004      -4.99420166    
   25.3999996      -5.15565825    
   25.4500008      -5.32259893    
   25.5000000      -5.49534225    
   25.5499992      -5.67428064    
   25.6000004      -5.85974789    
   25.6499996      -6.05190945    
   25.7000008      -6.25071955    
   25.7500000      -6.45595694    
   25.7999992      -6.66733694    
   25.8500004      -6.88463879    
   25.8999996      -7.10780907    
   25.9500008      -7.33699656    
   26.0000000      -7.57249737    
   26.0499992      -7.81464624    
   26.1000004      -8.06368256    
   26.1499996      -8.31965637    
   26.2000008      -8.58240700    
   26.2500000      -8.85162354    
   26.2999992      -9.12695026    
   26.3500004      -9.40811348    
   26.3999996      -9.69500065    
   26.4500008      -9.98766327    
   26.5000000      -10.2862520    
   26.5499992      -10.5909061    
   26.6000004      -10.9016399    
   26.6499996      -11.2182808    
   26.7000008      -11.5404854    
   26.7500000      -11.8678131    
   26.7999992      -12.1998444    
   26.8500004      -12.5362759    
   26.8999996      -12.8769684    
   26.9500008      -13.2219267    
   27.0000000      -13.5712042    
   27.0499992      -13.9247904    
   27.1000004      -14.2825308    
   27.1499996      -14.6440821    
   27.2000008      -15.0089579    
   27.2500000      -15.3766108    
   27.2999992      -15.7465410    
   27.3500004      -16.1183758    
   27.3999996      -16.4918709    
   27.4500008      -16.8668766    
   27.5000000      -17.2432480    
   27.5499992      -17.6207409    
   27.6000004      -17.9989815    
   27.6499996      -18.3774509    
   27.7000008      -18.7555656    
   27.7500000      -19.1327629    
   27.7999992      -19.5085831    
   27.8500004      -19.8827019    
   27.8999996      -20.2549171    
   27.9500008      -20.6250572    
   28.0000000      -20.9929028    
   28.0499992      -21.3581104    
   28.1000004      -21.7201939    
   28.1499996      -22.0785675    
   28.2000008      -22.4326115    
   28.2500000      -22.7817802    
   28.2999992      -23.1256428    
   28.3500004      -23.4638996    
   28.3999996      -23.7963238    
   28.4500008      -24.1226883    
   28.5000000      -24.4426823    
   28.5499992      -24.7558823    
   28.6000004      -25.0617752    
   28.6499996      -25.3598137    
   28.7000008      -25.6495152    
   28.7500000      -25.9305115    
   28.7999992      -26.2025814    
   28.8500004      -26.4656124    
   28.8999996      -26.7195187    
   28.9500008      -26.9641590    
   29.0000000      -27.1992836    
   29.0499992      -27.4245148    
   29.1000004      -27.6394119    
   29.1499996      -27.8435478    
   29.2000008      -28.0365868    
   29.2500000      -28.2183342    
   29.2999992      -28.3887291    
   29.3500004      -28.5477753    
   29.3999996      -28.6954727    
   29.4500008      -28.8317356    
   29.5000000      -28.9563847    
   29.5499992      -29.0691776    
   29.6000004      -29.1698780    
   29.6499996      -29.2583427    
   29.7000008      -29.3345661    
   29.7500000      -29.3986855    
   29.7999992      -29.4509258    
   29.8500004      -29.4915085    
   29.8999996      -29.5205803    
   29.9500008      -29.5381622    
   30.0000000      -29.5441761    
   30.0499992      -29.5385017    
   30.1000004      -29.5210724    
   30.1499996      -29.4919415    
   30.2000008      -29.4513168    
   30.2500000      -29.3995171    
   30.2999992      -29.3369026    
   30.3500004      -29.2637806    
   30.3999996      -29.1803551    
   30.4500008      -29.0867214    
   30.5000000      -28.9829254    
   30.5499992      -28.8690624    
   30.6000004      -28.7453651    
   30.6499996      -28.6122227    
   30.7000008      -28.4701748    
   30.7500000      -28.3197975    
   30.7999992      -28.1616077    
   30.8500004      -27.9959621    
   30.8999996      -27.8230324    
   30.9500008      -27.6428509    
   31.0000000      -27.4554253    
   31.0499992      -27.2608566    
   31.1000004      -27.0594292    
   31.1499996      -26.8516235    
   31.2000008      -26.6380482    
   31.2500000      -26.4193268    
   31.2999992      -26.1959763    
   31.3500004      -25.9683342    
   31.3999996      -25.7365551    
   31.4500008      -25.5007114    
   31.5000000      -25.2609272    
   31.5499992      -25.0174732    
   31.6000004      -24.7708492    
   31.6499996      -24.5217190    
   31.7000008      -24.2708054    
   31.7500000      -24.0187263    
   31.7999992      -23.7658749    
   31.8500004      -23.5123672    
   31.8999996      -23.2581120    
   31.9500008      -23.0029411    
   32.0000000      -22.7467861    
   32.0499992      -22.4898071    
   32.0999985      -22.2324257    
   32.1500015      -21.9752598    
   32.2000008      -21.7189808    
   32.2500000      -21.4641380    
   32.2999992      -21.2110500    
   32.3499985      -20.9597816    
   32.4000015      -20.7102337    
   32.4500008      -20.4622993    
   32.5000000      -20.2160053    
   32.5499992      -19.9716187    
   32.5999985      -19.7296219    
   32.6500015      -19.4905949    
   32.7000008      -19.2550449    
   32.7500000      -19.0232525    
   32.7999992      -18.7951851    