  -10.0000000       0.00000000    
  -9.94999981       0.00000000    
  -9.89999962       0.00000000    
  -9.85000038       0.00000000    
  -9.80000019       0.00000000    
  -9.75000000       0.00000000    
  -9.69999981       0.00000000    
  -9.64999962       0.00000000    
  -9.60000038       0.00000000    
  -9.55000019       1.99424068E-26
  -9.50000000       2.66003182E-25
  -9.44999981       1.69205694E-24
  -9.39999962       6.48335551E-24
  -9.35000038       1.45749610E-23
  -9.30000019       6.98310244E-24
  -9.25000000      -8.72921355E-23
  -9.19999981      -3.95352322E-22
  -9.14999962      -9.21186377E-22
  -9.10000038      -9.60353561E-22
  -9.05000019       1.79653471E-21
  -9.00000000       1.11626586E-20
  -8.94999981       2.79183086E-20
  -8.89999962       3.61532761E-20
  -8.85000038      -1.98627698E-20
  -8.80000019      -2.52573732E-19
  -8.75000000      -7.97424444E-19
  -8.69999981      -1.65903386E-18
  -8.64999962      -2.38849622E-18
  -8.60000038      -1.66879894E-18
  -8.55000019       2.85368088E-18
  -8.50000000       1.38375819E-17
  -8.44999981       3.18557610E-17
  -8.39999962       5.11248341E-17
  -8.35000038       5.46983272E-17
  -8.30000019       1.29420339E-17
  -8.25000000      -1.08623280E-16
  -8.19999981      -3.26278309E-16
  -8.14999962      -5.99622829E-16
  -8.10000038      -7.89858964E-16
  -8.05000019      -6.43853195E-16
  -8.00000000       1.54383732E-16
  -7.94999981       1.82865731E-15
  -7.90000010       4.25339839E-15
  -7.84999990       6.66891062E-15
  -7.80000019       7.53397267E-15
  -7.75000000       4.74168282E-15
  -7.69999981      -3.60995871E-15
  -7.65000010      -1.78876028E-14
  -7.59999990      -3.53688467E-14
  -7.55000019      -4.92061836E-14
  -7.50000000      -4.89166575E-14
  -7.44999981      -2.32757844E-14
  -7.40000010       3.42348796E-14
  -7.34999990       1.18592825E-13
  -7.30000019       2.07723677E-13
  -7.25000000       2.62084272E-13
  -7.19999981       2.32804444E-13
  -7.15000010       7.95280522E-14
  -7.09999990      -2.05182212E-13
  -7.05000019      -5.73101625E-13
  -7.00000000      -9.11202754E-13
  -6.94999981      -1.05777453E-12
  -6.90000010      -8.49282125E-13
  -6.84999990      -1.91514366E-13
  -6.80000019       8.65994939E-13
  -6.75000000       2.08460224E-12
  -6.69999981       3.05369055E-12
  -6.65000010       3.28961576E-12
  -6.59999990       2.40663522E-12
  -6.55000019       3.13356600E-13
  -6.50000000      -2.64152133E-12
  -6.44999981      -5.65671598E-12
  -6.40000010      -7.65227898E-12
  -6.34999990      -7.61840070E-12
  -6.30000019      -5.04458237E-12
  -6.25000000      -2.65663115E-13
  -6.19999981       5.45633720E-12
  -6.15000010       1.02345432E-11
  -6.09999990       1.22249389E-11
  -6.05000019       1.04614208E-11
  -6.00000000       5.51181583E-12
  -5.94999981      -4.27272800E-13
  -5.90000010      -4.24201299E-12
  -5.84999990      -3.35555065E-12
  -5.80000019       2.53722694E-12
  -5.75000000       1.02484046E-11
  -5.69999981       1.32624883E-11
  -5.65000010       3.84717128E-12
  -5.59999990      -2.30520551E-11
  -5.55000019      -6.52540175E-11
  -5.50000000      -1.10088279E-10
  -5.44999981      -1.34712810E-10
  -5.40000010      -1.11649037E-10
  -5.34999990      -1.95284310E-11
  -5.30000019       1.43345683E-10
  -5.25000000       3.47398443E-10
  -5.19999981       5.28264321E-10
  -5.15000010       5.96735938E-10
  -5.09999990       4.64210309E-10
  -5.05000019       8.00000621E-11
  -5.00000000      -5.29688404E-10
  -4.94999981      -1.23641775E-09
  -4.90000010      -1.81408710E-09
  -4.84999990      -1.98440131E-09
  -4.80000019      -1.50239010E-09
  -4.75000000      -2.64847144E-10
  -4.69999981       1.59138025E-09
  -4.65000010       3.64341868E-09
  -4.59999990       5.22696153E-09
  -4.55000019       5.58930058E-09
  -4.50000000       4.13372003E-09
  -4.44999981       6.96910807E-10
  -4.40000010      -4.23277635E-09
  -4.34999990      -9.45906553E-09
  -4.30000019      -1.32614284E-08
  -4.25000000      -1.38335619E-08
  -4.19999981      -9.90125315E-09
  -4.15000010      -1.35224754E-09
  -4.09999990       1.03486775E-08
  -4.05000019       2.21796839E-08
  -4.00000000       3.01462606E-08
  -3.95000005       3.03919414E-08
  -3.90000010       2.05926547E-08
  -3.84999990       1.21592214E-09
  -3.79999995      -2.38473259E-08
  -3.75000000      -4.76836526E-08
  -3.70000005      -6.19357081E-08
  -3.65000010      -5.93175145E-08
  -3.59999990      -3.64219410E-08
  -3.54999995       4.10048129E-09
  -3.50000000       5.29266941E-08
  -3.45000005       9.56242872E-08
  -3.40000010       1.16382644E-07
  -3.34999990       1.03126865E-07
  -3.29999995       5.25486037E-08
  -3.25000000      -2.67295093E-08
  -3.20000005      -1.14392705E-07
  -3.15000010      -1.82763628E-07
  -3.09999990      -2.04626133E-07
  -3.04999995      -1.62593537E-07
  -3.00000000      -5.71156846E-08
  -2.95000005       8.99164974E-08
  -2.90000010       2.38110104E-07
  -2.84999990       3.38367443E-07
  -2.79999995       3.47563798E-07
  -2.75000000       2.44081463E-07
  -2.70000005       3.91312938E-08
  -2.65000010      -2.20707591E-07
  -2.59999990      -4.62156379E-07
  -2.54999995      -6.04209220E-07
  -2.50000000      -5.82924542E-07
  -2.45000005      -3.74888401E-07
  -2.40000010      -1.15064926E-08
  -2.34999990       4.21931418E-07
  -2.29999995       8.04426918E-07
  -2.25000000       1.01142894E-06
  -2.20000005       9.52776247E-07
  -2.15000010       6.05290268E-07
  -2.09999990       2.91314350E-08
  -2.04999995      -6.39222492E-07
  -2.00000000      -1.21808580E-06
  -1.95000005      -1.52909229E-06
  -1.89999998      -1.45037995E-06
  -1.85000002      -9.58890951E-07
  -1.79999995      -1.47958559E-07
  -1.75000000       7.87570855E-07
  -1.70000005       1.59746401E-06
  -1.64999998       2.04287085E-06
  -1.60000002       1.96610563E-06
  -1.54999995       1.34339746E-06
  -1.50000000       3.03821082E-07
  -1.45000005      -8.93994411E-07
  -1.39999998      -1.92435141E-06
  -1.35000002      -2.48166612E-06
  -1.29999995      -2.36962387E-06
  -1.25000000      -1.56710928E-06
  -1.20000005      -2.50110219E-07
  -1.14999998       1.24063581E-06
  -1.10000002       2.48214565E-06
  -1.04999995       3.08325548E-06
  -1.00000000       2.80096742E-06
 -0.949999988       1.62620199E-06
 -0.899999976      -1.88700966E-07
 -0.850000024      -2.17486991E-06
 -0.800000012      -3.75926425E-06
 -0.750000000      -4.41974180E-06
 -0.699999988      -3.84289706E-06
 -0.649999976      -2.03923855E-06
 -0.600000024       6.22723462E-07
 -0.550000012       3.48273761E-06
 -0.500000000       5.74746218E-06
 -0.449999988       6.70526879E-06
 -0.400000006       5.94009589E-06
 -0.349999994       3.48109052E-06
 -0.300000012      -1.62901443E-07
 -0.250000000      -4.10562734E-06
 -0.200000003      -7.30499414E-06
 -0.150000006      -8.84853580E-06
 -0.100000001      -8.22293623E-06
  -5.00000007E-02  -5.48579055E-06
   5.55111512E-16  -1.28122178E-06
   5.00000007E-02   3.31545743E-06
  0.100000001       7.08728840E-06
  0.150000006       9.01919066E-06
  0.200000003       8.59436113E-06
  0.250000000       5.95243682E-06
  0.300000012       1.85756767E-06
  0.349999994      -2.51817596E-06
  0.400000006      -5.93338382E-06
  0.449999988      -7.43661121E-06
  0.500000000      -6.63830315E-06
  0.550000012      -3.81479231E-06
  0.600000024       1.83159315E-07
  0.649999976       4.18402396E-06
  0.699999988       7.02983789E-06
  0.750000000       7.88958641E-06
  0.800000012       6.46362059E-06
  0.850000024       3.03185584E-06
  0.899999976      -1.64953792E-06
  0.949999988      -6.55401391E-06
   1.00000000      -1.06225416E-05
   1.04999995      -1.29688651E-05
   1.10000002      -1.30146409E-05
   1.14999998      -1.05508971E-05
   1.20000005      -5.74702835E-06
   1.25000000       8.66102198E-07
   1.29999995       8.42648387E-06
   1.35000002       1.57953782E-05
   1.39999998       2.16631888E-05
   1.45000005       2.47310345E-05
   1.50000000       2.39656383E-05
   1.54999995       1.88837494E-05
   1.60000002       9.78500611E-06
   1.64999998      -2.16048124E-06
   1.70000005      -1.50384949E-05
   1.75000000      -2.65391864E-05
   1.79999995      -3.44586915E-05
   1.85000002      -3.72207287E-05
   1.89999998      -3.42615785E-05
   1.95000005      -2.61543846E-05
   2.00000000      -1.44296300E-05
   2.04999995      -1.15067223E-06
   2.09999990       1.16128786E-05
   2.15000010       2.22395302E-05
   2.20000005       2.97989063E-05
   2.25000000       3.40335464E-05
   2.29999995       3.51368326E-05
   2.34999990       3.34629513E-05
   2.40000010       2.93202156E-05
   2.45000005       2.29423895E-05
   2.50000000       1.46290122E-05
   2.54999995       4.94365304E-06
   2.59999990      -5.18973911E-06
   2.65000010      -1.46166421E-05
   2.70000005      -2.23202260E-05
   2.75000000      -2.78988500E-05
   2.79999995      -3.19212559E-05
   2.84999990      -3.59256665E-05
   2.90000010      -4.19481148E-05
   2.95000005      -5.16720320E-05
   3.00000000      -6.55030744E-05
   3.04999995      -8.19887937E-05
   3.09999990      -9.79478064E-05
   3.15000010      -1.09436645E-04
   3.20000005      -1.13335605E-04
   3.25000000      -1.09010434E-04
   3.29999995      -9.93535141E-05
   3.34999990      -9.06245914E-05
   3.40000010      -9.08970542E-05
   3.45000005      -1.07454907E-04
   3.50000000      -1.43977581E-04
   3.54999995      -1.98582464E-04
   3.59999990      -2.63632013E-04
   3.65000010      -3.27659334E-04
   3.70000005      -3.78991797E-04
   3.75000000      -4.09936038E-04
   3.79999995      -4.20021854E-04
   3.84999990      -4.16979718E-04
   3.90000010      -4.14837501E-04
   3.95000005      -4.29552019E-04
   4.00000000      -4.73570224E-04
   4.05000019      -5.51255827E-04
   4.09999990      -6.56967342E-04
   4.15000010      -7.76723668E-04
   4.19999981      -8.93113029E-04
   4.25000000      -9.91843641E-04
   4.30000019      -1.06759521E-03
   4.34999990      -1.12692104E-03
   4.40000010      -1.18691393E-03
   4.44999981      -1.26985845E-03
   4.50000000      -1.39561959E-03
   4.55000019      -1.57446985E-03
   4.59999990      -1.80303585E-03
   4.65000010      -2.06501968E-03
   4.69999981      -2.33664177E-03
   4.75000000      -2.59500509E-03
   4.80000019      -2.82644131E-03
   4.84999990      -3.03183217E-03
   4.90000010      -3.22695961E-03
   4.94999981      -3.43775330E-03
   5.00000000      -3.69217736E-03
   5.05000019      -4.01173811E-03
   5.09999990      -4.40569129E-03
   5.15000010      -4.86995000E-03
   5.19999981      -5.39085967E-03
   5.25000000      -5.95214218E-03
   5.30000019      -6.54215598E-03
   5.34999990      -7.15861935E-03
   5.40000010      -7.80911278E-03
   5.44999981      -8.50751158E-03
   5.50000000      -9.26820748E-03
   5.55000019      -1.01008601E-02
   5.59999990      -1.10081155E-02
   5.65000010      -1.19872661E-02
   5.69999981      -1.30350171E-02
   5.75000000      -1.41529497E-02
   5.80000019      -1.53508736E-02
   5.84999990      -1.66461337E-02
   5.90000010      -1.80587713E-02
   5.94999981      -1.96045469E-02
   6.00000000      -2.12890711E-02
   6.05000019      -2.31062360E-02
   6.09999990      -2.50425078E-02
   6.15000010      -2.70860456E-02
   6.19999981      -2.92373411E-02
   6.25000000      -3.15167643E-02
   6.30000019      -3.39651592E-02
   6.34999990      -3.66361067E-02
   6.40000010      -3.95818390E-02
   6.44999981      -4.28376831E-02
   6.50000000      -4.64111753E-02
   6.55000019      -5.02807237E-02
   6.59999990      -5.44053540E-02
   6.65000010      -5.87428845E-02
   6.69999981      -6.32701889E-02
   6.75000000      -6.79981038E-02
   6.80000019      -7.29748011E-02
   6.84999990      -7.82760680E-02
   6.90000010      -8.39852840E-02
   6.94999981      -9.01707187E-02
   7.00000000      -9.68687013E-02
   7.05000019     -0.104079314    
   7.09999990     -0.111776792    
   7.15000010     -0.119930781    
   7.19999981     -0.128530234    
   7.25000000     -0.137600601    
   7.30000019     -0.147206947    
   7.34999990     -0.157441542    
   7.40000010     -0.168400154    
   7.44999981     -0.180156529    
   7.50000000     -0.192745090    
   7.55000019     -0.206159219    
   7.59999990     -0.220366389    
   7.65000010     -0.235334486    
   7.69999981     -0.251059234    
   7.75000000     -0.267581761    
   7.80000019     -0.284989208    
   7.84999990     -0.303397685    
   7.90000010     -0.322924465    
   7.94999981     -0.343660623    
   8.00000000     -0.365654945    
   8.05000019     -0.388916194    
   8.10000038     -0.413432926    
   8.14999962     -0.439203054    
   8.19999981     -0.466260463    
   8.25000000     -0.494687945    
   8.30000019     -0.524610043    
   8.35000038     -0.556168795    
   8.39999962     -0.589490950    
   8.44999981     -0.624661565    
   8.50000000     -0.661713779    
   8.55000019     -0.700640619    
   8.60000038     -0.741424501    
   8.64999962     -0.784072995    
   8.69999981     -0.828645885    
   8.75000000     -0.875262141    
   8.80000019     -0.924083769    
   8.85000038     -0.975281894    
   8.89999962      -1.02899897    
   8.94999981      -1.08532202    
   9.00000000      -1.14427865    
   9.05000019      -1.20585895    
   9.10000038      -1.27005279    
   9.14999962      -1.33688998    
   9.19999981      -1.40646601    
   9.25000000      -1.47894156    
   9.30000019      -1.55451715    
   9.35000038      -1.63339126    
   9.39999962      -1.71571922    
   9.44999981      -1.80158877    
   9.50000000      -1.89102256    
   9.55000019      -1.98400784    
   9.60000038      -2.08053756    
   9.64999962      -2.18065071    
   9.69999981      -2.28445172    
   9.75000000      -2.39210153    
   9.80000019      -2.50378609    
   9.85000038      -2.61967611    
   9.89999962      -2.73989010    
   9.94999981      -2.86448359    
   10.0000000      -2.99346709    
   10.0500002      -3.12684107    
   10.1000004      -3.26463866    
   10.1499996      -3.40695357    
   10.1999998      -3.55394030    
   10.2500000      -3.70578694    
   10.3000002      -3.86266971    
   10.3500004      -4.02470922    
   10.3999996      -4.19194984    
   10.4499998      -4.36436892    
   10.5000000      -4.54191589    
   10.5500002      -4.72456694    
   10.6000004      -4.91237020    
   10.6499996      -5.10546160    
   10.6999998      -5.30404091    
   10.7500000      -5.50832176    
   10.8000002      -5.71846533    
   10.8500004      -5.93453074    
   10.8999996      -6.15646458    
   10.9499998      -6.38413429    
   11.0000000      -6.61739492    
   11.0500002      -6.85616112    
   11.1000004      -7.10046387    
   11.1499996      -7.35045767    
   11.1999998      -7.60638046    
   11.2500000      -7.86847687    
   11.3000002      -8.13691425    
   11.3500004      -8.41172791    
   11.3999996      -8.69280624    
   11.4499998      -8.97993946    
   11.5000000      -9.27290058    
   11.5500002      -9.57152653    
   11.6000004      -9.87578487    
   11.6499996      -10.1857729    
   11.6999998      -10.5016775    
   11.7500000      -10.8236895    
   11.8000002      -11.1519251    
   11.8500004      -11.4863682    
   11.8999996      -11.8268709    
   11.9499998      -12.1732082    
   12.0000000      -12.5251503    
   12.0500002      -12.8825388    
   12.1000004      -13.2453318    
   12.1499996      -13.6135874    
   12.1999998      -13.9874105    
   12.2500000      -14.3668785    
   12.3000002      -14.7519751    
   12.3500004      -15.1425676    
   12.3999996      -15.5384350    
   12.4499998      -15.9393301    
   12.5000000      -16.3450661    
   12.5500002      -16.7555580    
   12.6000004      -17.1708355    
   12.6499996      -17.5909939    
   12.6999998      -18.0161209    
   12.7500000      -18.4462032    
   12.8000002      -18.8810959    
   12.8500004      -19.3205185    
   12.8999996      -19.7641258    
   12.9499998      -20.2116013    
   13.0000000      -20.6627483    
   13.0500002      -21.1175117    
   13.1000004      -21.5759773    
   13.1499996      -22.0382786    
   13.1999998      -22.5044975    
   13.2500000      -22.9745808    
   13.3000002      -23.4483032    
   13.3500004      -23.9253063    
   13.3999996      -24.4051895    
   13.4499998      -24.8876171    
   13.5000000      -25.3724098    
   13.5500002      -25.8595753    
   13.6000004      -26.3492527    
   13.6499996      -26.8416214    
   13.6999998      -27.3367901    
   13.7500000      -27.8346977    
   13.8000002      -28.3351078    
   13.8500004      -28.8376541    
   13.8999996      -29.3419380    
   13.9499998      -29.8476505    
   14.0000000      -30.3546429    
   14.0500002      -30.8629379    
   14.1000004      -31.3726807    
   14.1499996      -31.8840218    
   14.1999998      -32.3970222    
   14.2500000      -32.9115753    
   14.3000002      -33.4274292    
   14.3500004      -33.9442329    
   14.3999996      -34.4616432    
   14.4499998      -34.9794388    
   14.5000000      -35.4975662    
   14.5500002      -36.0161133    
   14.6000004      -36.5352554    
   14.6499996      -37.0551300    
   14.6999998      -37.5757828    
   14.7500000      -38.0970764    
   14.8000002      -38.6187630    
   14.8500004      -39.1405296    
   14.8999996      -39.6621056    
   14.9499998      -40.1833458    
   15.0000000      -40.7042427    
   15.0500002      -41.2249069    
   15.1000004      -41.7454948    
   15.1499996      -42.2660942    
   15.1999998      -42.7866974    
   15.2500000      -43.3071442    
   15.3000002      -43.8272095    
   15.3500004      -44.3466339    
   15.3999996      -44.8652306    
   15.4499998      -45.3829117    
   15.5000000      -45.8997116    
   15.5500002      -46.4157181    
   15.6000004      -46.9310303    
   15.6499996      -47.4456787    
   15.6999998      -47.9595985    
   15.7500000      -48.4726486    
   15.8000002      -48.9846573    
   15.8500004      -49.4954567    
   15.8999996      -50.0049629    
   15.9499998      -50.5131378    
   16.0000000      -51.0199966    
   16.0499992      -51.5255508    
   16.1000004      -52.0297699    
   16.1499996      -52.5325661    
   16.2000008      -53.0338020    
   16.2500000      -53.5333252    
   16.2999992      -54.0309906    
   16.3500004      -54.5267105    
   16.3999996      -55.0204201    
   16.4500008      -55.5120621    
   16.5000000      -56.0015335    
   16.5499992      -56.4886627    
   16.6000004      -56.9732170    
   16.6499996      -57.4549217    
   16.7000008      -57.9335175    
   16.7500000      -58.4088173    
   16.7999992      -58.8806953    
   16.8500004      -59.3490982    
   16.8999996      -59.8139648    
   16.9500008      -60.2751427    
   17.0000000      -60.7323647    
   17.0499992      -61.1852303    
   17.1000004      -61.6332588    
   17.1499996      -62.0759735    
   17.2000008      -62.5129890    
   17.2500000      -62.9440689    
   17.2999992      -63.3690796    
   17.3500004      -63.7879333    
   17.3999996      -64.2004700    
   17.4500008      -64.6063309    
   17.5000000      -65.0049515    
   17.5499992      -65.3955688    
   17.6000004      -65.7773819    
   17.6499996      -66.1496429    
   17.7000008      -66.5117950    
   17.7500000      -66.8634872    
   17.7999992      -67.2045441    
   17.8500004      -67.5347672    
   17.8999996      -67.8538055    
   17.9500008      -68.1610641    
   18.0000000      -68.4556351    
   18.0499992      -68.7364273    
   18.1000004      -69.0023041    
   18.1499996      -69.2523117    
   18.2000008      -69.4857330    
   18.2500000      -69.7021332    
   18.2999992      -69.9012299    
   18.3500004      -70.0826721    
   18.3999996      -70.2458725    
   18.4500008      -70.3898849    
   18.5000000      -70.5134048    
   18.5499992      -70.6149445    
   18.6000004      -70.6930389    
   18.6499996      -70.7464371    
   18.7000008      -70.7742462    
   18.7500000      -70.7758865    
   18.7999992      -70.7509079    
   18.8500004      -70.6987991    
   18.8999996      -70.6187439    
   18.9500008      -70.5095215    
   19.0000000      -70.3695908    
   19.0499992      -70.1972351    
   19.1000004      -69.9908676    
   19.1499996      -69.7491608    
   19.2000008      -69.4712219    
   19.2500000      -69.1564178    
   19.2999992      -68.8042145    
   19.3500004      -68.4139633    
   19.3999996      -67.9846191    
   19.4500008      -67.5147858    
   19.5000000      -67.0027847    
   19.5499992      -66.4468918    
   19.6000004      -65.8455658    
   19.6499996      -65.1976547    
   19.7000008      -64.5024185    
   19.7500000      -63.7593918    
   19.7999992      -62.9681664    
   19.8500004      -62.1281509    
   19.8999996      -61.2384148    
   19.9500008      -60.2976913    
   20.0000000      -59.3045425    
   20.0499992      -58.2575722    
   20.1000004      -57.1556816    
   20.1499996      -55.9981728    
   20.2000008      -54.7847404    
   20.2500000      -53.5152817    
   20.2999992      -52.1897011    
   20.3500004      -50.8076897    
   20.3999996      -49.3686600    
   20.4500008      -47.8718033    
   20.5000000      -46.3162880    
   20.5499992      -44.7014618    
   20.6000004      -43.0270538    
   20.6499996      -41.2932053    
   20.7000008      -39.5003853    
   20.7500000      -37.6491966    
   20.7999992      -35.7401543    
   20.8500004      -33.7735939    
   20.8999996      -31.7496281    
   20.9500008      -29.6683102    
   21.0000000      -27.5298195    
   21.0499992      -25.3346519    
   21.1000004      -23.0837097    
   21.1499996      -20.7782593    
   21.2000008      -18.4197750    
   21.2500000      -16.0097504    
   21.2999992      -13.5495377    
   21.3500004      -11.0403166    
   21.3999996      -8.48318291    
   21.4500008      -5.87933207    
   21.5000000      -3.23024726    
   21.5499992     -0.537811041    
   21.6000004       2.19571042    
   21.6499996       4.96781015    
   21.7000008       7.77594852    
   21.7500000       10.6177320    
   21.7999992       13.4909916    
   21.8500004       16.3937111    
   21.8999996       19.3238487    
   21.9500008       22.2791119    
   22.0000000       25.2567959    
   22.0499992       28.2537632    
   22.1000004       31.2665730    
   22.1499996       34.2916985    
   22.2000008       37.3257790    
   22.2500000       40.3657684    
   22.2999992       43.4088974    
   22.3500004       46.4525261    
   22.3999996       49.4938660    
   22.4500008       52.5297737    
   22.5000000       55.5566216    
   22.5499992       58.5704079    
   22.6000004       61.5669785    
   22.6499996       64.5423279    
   22.7000008       67.4928513    
   22.7500000       70.4154282    
   22.7999992       73.3072739    
   22.8500004       76.1657181    
   22.8999996       78.9878387    
   22.9500008       81.7702637    
   23.0000000       84.5091171    
   23.0499992       87.2002335    
   23.1000004       89.8394547    
   23.1499996       92.4229889    
   23.2000008       94.9476624    
   23.2500000       97.4109192    
   23.2999992       99.8105927    
   23.3500004       102.144623    
   23.3999996       104.410614    
   23.4500008       106.605713    
   23.5000000       108.726601    
   23.5499992       110.769753    
   23.6000004       112.731834    
   23.6499996       114.610077    
   23.7000008       116.402435    
   23.7500000       118.107567    
   23.7999992       119.724556    
   23.8500004       121.252472    
   23.8999996       122.690109    
   23.9500008       124.035774    
   24.0000000       125.287369    
   24.0499992       126.442749    
   24.1000004       127.500061    
   24.1499996       128.458115    
   24.2000008       129.316483    
   24.2500000       130.075424    
   24.2999992       130.735565    
   24.3500004       131.297440    
   24.3999996       131.761261    
   24.4500008       132.126801    
   24.5000000       132.393539    
   24.5499992       132.560944    
   24.6000004       132.628952    
   24.6499996       132.598068    
   24.7000008       132.469650    
   24.7500000       132.245529    
   24.7999992       131.927872    
   24.8500004       131.518646    
   24.8999996       131.019485    
   24.9500008       130.431595    
   25.0000000       129.755936    
   25.0499992       128.993561    
   25.1000004       128.145889    
   25.1499996       127.214966    
   25.2000008       126.203392    
   25.2500000       125.114204    
   25.2999992       123.950554    
   25.3500004       122.715393    
   25.3999996       121.411316    
   25.4500008       120.040588    
   25.5000000       118.605263    
   25.5499992       117.107498    
   25.6000004       115.549728    
   25.6499996       113.934875    
   25.7000008       112.266228    
   25.7500000       110.547325    
   25.7999992       108.781700    
   25.8500004       106.972664    
   25.8999996       105.123238    
   25.9500008       103.236122    
   26.0000000       101.313904    
   26.0499992       99.3591919    
   26.1000004       97.3747559    
   26.1499996       95.3636246    
   26.2000008       93.3289871    
   26.2500000       91.2741089    
   26.2999992       89.2021561    
   26.3500004       87.1161575    
   26.3999996       85.0189056    
   26.4500008       82.9130478    
   26.5000000       80.8010864    
   26.5499992       78.6855164    
   26.6000004       76.5688095    
   26.6499996       74.4534683    
   26.7000008       72.3419571    
   26.7500000       70.2366638    
   26.7999992       68.1399384    
   26.8500004       66.0539932    
   26.8999996       63.9810143    
   26.9500008       61.9231415    
   27.0000000       59.8824348    
   27.0499992       57.8608398    
   27.1000004       55.8601341    
   27.1499996       53.8818970    
   27.2000008       51.9275169    
   27.2500000       49.9982300    
   27.2999992       48.0952568    
   27.3500004       46.2198601    
   27.3999996       44.3733978    
   27.4500008       42.5573311    
   27.5000000       40.7730827    
   27.5499992       39.0219040    
   27.6000004       37.3047371    
   27.6499996       35.6221809    
   27.7000008       33.9745140    
   27.7500000       32.3618813    
   27.7999992       30.7844429    
   27.8500004       29.2425747    
   27.8999996       27.7369003    
   27.9500008       26.2682171    
   28.0000000       24.8373222    
   28.0499992       23.4447765    
   28.1000004       22.0907421    
   28.1499996       20.7749405    
   28.2000008       19.4967480    
   28.2500000       18.2554321    
   28.2999992       17.0504074    
   28.3500004       15.8814135    
   28.3999996       14.7485504    
   28.4500008       13.6521502    
   28.5000000       12.5925303    
   28.5499992       11.5697231    
   28.6000004       10.5833015    
   28.6499996       9.63236713    
   28.7000008       8.71571541    
   28.7500000       7.83211708    
   28.7999992       6.98059607    
   28.8500004       6.16059875    
   28.8999996       5.37198782    
   28.9500008       4.61485338    
   29.0000000       3.88922286    
   29.0499992       3.19478464    
   29.1000004       2.53073573    
   29.1499996       1.89582396    
   29.2000008       1.28856301    
   29.2500000      0.707541347    
   29.2999992      0.151698887    
   29.3500004     -0.379537165    
   29.3999996     -0.886314273    
   29.4500008      -1.36858690    
   29.5000000      -1.82642651    
   29.5499992      -2.26028585    
   29.6000004      -2.67110848    
   29.6499996      -3.06024361    
   29.7000008      -3.42919636    
   29.7500000      -3.77931714    
   29.7999992      -4.11155176    
   29.8500004      -4.42635250    
   29.8999996      -4.72378063    
   29.9500008      -5.00376225    
   30.0000000      -5.26638508    
   30.0499992      -5.51212597    
   30.1000004      -5.74191284    
   30.1499996      -5.95700359    
   30.2000008      -6.15872669    
   30.2500000      -6.34819651    
   30.2999992      -6.52610636    
   30.3500004      -6.69268990    
   30.3999996      -6.84785461    
   30.4500008      -6.99143505    
   30.5000000      -7.12346601    
   30.5499992      -7.24435997    
   30.6000004      -7.35493803    
   30.6499996      -7.45628643    
   30.7000008      -7.54951572    
   30.7500000      -7.63551283    
   30.7999992      -7.71477699    
   30.8500004      -7.78740597    
   30.8999996      -7.85323095    
   30.9500008      -7.91203833    
   31.0000000      -7.96379471    
   31.0499992      -8.00878811    
   31.1000004      -8.04763126    
   31.1499996      -8.08114815    
   31.2000008      -8.11016273    
   31.2500000      -8.13531685    
   31.2999992      -8.15693855    
   31.3500004      -8.17504501    
   31.3999996      -8.18944645    
   31.4500008      -8.19992161    
   31.5000000      -8.20638180    
   31.5499992      -8.20898914    
   31.6000004      -8.20815277    
   31.6499996      -8.20445824    
   31.7000008      -8.19851208    
   31.7500000      -8.19080448    
   31.7999992      -8.18159771    
   31.8500004      -8.17091465    
   31.8999996      -8.15859032    
   31.9500008      -8.14438152    
   32.0000000      -8.12810230    
   32.0499992      -8.10971165    
   32.0999985      -8.08937073    
   32.1500015      -8.06741142    
   32.2000008      -8.04426765    
   32.2500000      -8.02036381    
   32.2999992      -7.99602365    
   32.3499985      -7.97138643    
   32.4000015      -7.94640017    
   32.4500008      -7.92086124    
   32.5000000      -7.89449787    
   32.5499992      -7.86708403    
   32.5999985      -7.83853769    
   32.6500015      -7.80897570    
   32.7000008      -7.77870989    
   32.7500000      -7.74817228    
   32.7999992      -7.71779394    