  -10.0000000       0.00000000    
  -9.94999981       0.00000000    
  -9.89999962       0.00000000    
  -9.85000038       0.00000000    
  -9.80000019       0.00000000    
  -9.75000000       0.00000000    
  -9.69999981       0.00000000    
  -9.64999962       0.00000000    
  -9.60000038       0.00000000    
  -9.55000019       0.00000000    
  -9.50000000       6.35548771E-32
  -9.44999981       2.35558630E-30
  -9.39999962       2.72396821E-29
  -9.35000038       1.71200595E-28
  -9.30000019       6.69087370E-28
  -9.25000000       1.49410708E-27
  -9.19999981      -1.59059400E-28
  -9.14999962      -1.80415047E-26
  -9.10000038      -9.56402512E-26
  -9.05000019      -3.40641528E-25
  -9.00000000      -9.82475968E-25
  -8.94999981      -2.47478741E-24
  -8.89999962      -5.68879666E-24
  -8.85000038      -1.22105934E-23
  -8.80000019      -2.44821704E-23
  -8.75000000      -4.47909037E-23
  -8.69999981      -7.10460437E-23
  -8.64999962      -8.70752556E-23
  -8.60000038      -4.85395360E-23
  -8.55000019       1.24377326E-22
  -8.50000000       5.20138884E-22
  -8.44999981       1.13595819E-21
  -8.39999962       1.68437601E-21
  -8.35000038       1.36677611E-21
  -8.30000019      -1.17203819E-21
  -8.25000000      -7.32793489E-21
  -8.19999981      -1.70718882E-20
  -8.14999962      -2.65512795E-20
  -8.10000038      -2.57778996E-20
  -8.05000019       1.14698073E-21
  -8.00000000       6.97906823E-20
  -7.94999981       1.80543064E-19
  -7.90000010       2.97025462E-19
  -7.84999990       3.28002083E-19
  -7.80000019       1.32728109E-19
  -7.75000000      -4.26119197E-19
  -7.69999981      -1.36871105E-18
  -7.65000010      -2.44405815E-18
  -7.59999990      -3.01019193E-18
  -7.55000019      -2.07619997E-18
  -7.50000000       1.35499277E-18
  -7.44999981       7.58420480E-18
  -7.40000010       1.52952296E-17
  -7.34999990       2.08459259E-17
  -7.30000019       1.84573889E-17
  -7.25000000       2.00480208E-18
  -7.19999981      -3.13257798E-17
  -7.15000010      -7.62434208E-17
  -7.09999990      -1.15505701E-16
  -7.05000019      -1.20247577E-16
  -7.00000000      -5.77510240E-17
  -6.94999981       9.20360722E-17
  -6.90000010       3.14202134E-16
  -6.84999990       5.39526900E-16
  -6.80000019       6.41719043E-16
  -6.75000000       4.65403470E-16
  -6.69999981      -1.08232752E-16
  -6.65000010      -1.06758699E-15
  -6.59999990      -2.18054614E-15
  -6.55000019      -2.96039603E-15
  -6.50000000      -2.74539429E-15
  -6.44999981      -9.27464020E-16
  -6.40000010       2.69029861E-15
  -6.34999990       7.50882002E-15
  -6.30000019       1.19024714E-14
  -6.25000000       1.33610011E-14
  -6.19999981       9.17020823E-15
  -6.15000010      -2.37014366E-15
  -6.09999990      -2.04610278E-14
  -6.05000019      -4.06161887E-14
  -6.00000000      -5.45282406E-14
  -5.94999981      -5.16824539E-14
  -5.90000010      -2.29801699E-14
  -5.84999990       3.41666325E-14
  -5.80000019       1.10802182E-13
  -5.75000000       1.83815948E-13
  -5.69999981       2.18303457E-13
  -5.65000010       1.76572529E-13
  -5.59999990       3.33658611E-14
  -5.55000019      -2.06141419E-13
  -5.50000000      -4.92051387E-13
  -5.44999981      -7.27370312E-13
  -5.40000010      -7.84760494E-13
  -5.34999990      -5.44974764E-13
  -5.30000019       4.85224789E-14
  -5.25000000       9.33878842E-13
  -5.19999981       1.89708123E-12
  -5.15000010       2.58488760E-12
  -5.09999990       2.58153850E-12
  -5.05000019       1.54785906E-12
  -5.00000000      -6.05025687E-13
  -4.94999981      -3.56207511E-12
  -4.90000010      -6.54212578E-12
  -4.84999990      -8.39335632E-12
  -4.80000019      -7.87854677E-12
  -4.75000000      -4.12046959E-12
  -4.69999981       2.89864205E-12
  -4.65000010       1.19560490E-11
  -4.59999990       2.05243565E-11
  -4.55000019       2.51814264E-11
  -4.50000000       2.25319798E-11
  -4.44999981       1.04964926E-11
  -4.40000010      -1.03753690E-11
  -4.34999990      -3.60536462E-11
  -4.30000019      -5.91398250E-11
  -4.25000000      -7.02706157E-11
  -4.19999981      -6.07828093E-11
  -4.15000010      -2.61268836E-11
  -4.09999990       3.09495277E-11
  -4.05000019       9.86961832E-11
  -4.00000000       1.57284699E-10
  -3.95000005       1.82960092E-10
  -3.90000010       1.55051874E-10
  -3.84999990       6.43174888E-11
  -3.79999995      -7.99043470E-11
  -3.75000000      -2.46666326E-10
  -3.70000005      -3.86940480E-10
  -3.65000010      -4.44591752E-10
  -3.59999990      -3.73342801E-10
  -3.54999995      -1.55711236E-10
  -3.50000000       1.82033555E-10
  -3.45000005       5.65276381E-10
  -3.40000010       8.81533790E-10
  -3.34999990       1.00689368E-09
  -3.29999995       8.44072257E-10
  -3.25000000       3.62509245E-10
  -3.20000005      -3.72500197E-10
  -3.15000010      -1.19452925E-09
  -3.09999990      -1.86295379E-09
  -3.04999995      -2.12181495E-09
  -3.00000000      -1.77948678E-09
  -2.95000005      -7.88085208E-10
  -2.90000010       7.03814729E-10
  -2.84999990       2.34945130E-09
  -2.79999995       3.66654063E-09
  -2.75000000       4.15965440E-09
  -2.70000005       3.47665940E-09
  -2.65000010       1.55608926E-09
  -2.59999990      -1.28496214E-09
  -2.54999995      -4.36505054E-09
  -2.50000000      -6.77358347E-09
  -2.45000005      -7.61044028E-09
  -2.40000010      -6.27546992E-09
  -2.34999990      -2.72487588E-09
  -2.29999995       2.39584375E-09
  -2.25000000       7.81191734E-09
  -2.20000005       1.18936896E-08
  -2.15000010       1.31014817E-08
  -2.09999990       1.04924869E-08
  -2.04999995       4.13893009E-09
  -2.00000000      -4.69491024E-09
  -1.95000005      -1.37214746E-08
  -1.89999998      -2.01577937E-08
  -1.85000002      -2.15123208E-08
  -1.79999995      -1.64277605E-08
  -1.75000000      -5.32053868E-09
  -1.70000005       9.42543377E-09
  -1.64999998       2.38543585E-08
  -1.60000002       3.34040351E-08
  -1.54999995       3.42355584E-08
  -1.50000000       2.45683136E-08
  -1.45000005       5.59700153E-09
  -1.39999998      -1.83724378E-08
  -1.35000002      -4.07440020E-08
  -1.29999995      -5.43109699E-08
  -1.25000000      -5.34054934E-08
  -1.20000005      -3.59177399E-08
  -1.14999998      -4.52823601E-09
  -1.10000002       3.33590791E-08
  -1.04999995       6.71663969E-08
  -1.00000000       8.59191758E-08
 -0.949999988       8.15713861E-08
 -0.899999976       5.19250420E-08
 -0.850000024       2.17574714E-09
 -0.800000012      -5.55967432E-08
 -0.750000000      -1.05131264E-07
 -0.699999988      -1.30357009E-07
 -0.649999976      -1.20318148E-07
 -0.600000024      -7.32095771E-08
 -0.550000012       1.83857907E-09
 -0.500000000       8.60775060E-08
 -0.449999988       1.55562319E-07
 -0.400000006       1.87729938E-07
 -0.349999994       1.68395943E-07
 -0.300000012       9.70852270E-08
 -0.250000000      -1.11392096E-08
 -0.200000003      -1.28338655E-07
 -0.150000006      -2.20588419E-07
 -0.100000001      -2.57506372E-07
  -5.00000007E-02  -2.21835535E-07
   5.55111512E-16  -1.16173801E-07
   5.00000007E-02   3.55272114E-08
  0.100000001       1.92755365E-07
  0.150000006       3.08791016E-07
  0.200000003       3.44113829E-07
  0.250000000       2.79145411E-07
  0.300000012       1.22394539E-07
  0.349999994      -8.89731098E-08
  0.400000006      -2.97152326E-07
  0.449999988      -4.38826447E-07
  0.500000000      -4.63619358E-07
  0.550000012      -3.50671542E-07
  0.600000024      -1.18149934E-07
  0.649999976       1.77920981E-07
  0.699999988       4.56285875E-07
  0.750000000       6.31961939E-07
  0.800000012       6.41109750E-07
  0.850000024       4.62194521E-07
  0.899999976       1.26761833E-07
  0.949999988      -2.84407975E-07
   1.00000000      -6.60055832E-07
   1.04999995      -8.87992996E-07
   1.10000002      -8.87731630E-07
   1.14999998      -6.36862978E-07
   1.20000005      -1.82857704E-07
   1.25000000       3.64463290E-07
   1.29999995       8.59241482E-07
   1.35000002       1.15854732E-06
   1.39999998       1.16363935E-06
   1.45000005       8.51644415E-07
   1.50000000       2.87676016E-07
   1.54999995      -3.87613824E-07
   1.60000002      -9.93208573E-07
   1.64999998      -1.35698224E-06
   1.70000005      -1.36563779E-06
   1.75000000      -1.00079376E-06
   1.79999995      -3.49755510E-07
   1.85000002       4.13827735E-07
   1.89999998       1.07568292E-06
   1.95000005       1.44126534E-06
   2.00000000       1.39391955E-06
   2.04999995       9.33572608E-07
   2.09999990       1.83298653E-07
   2.15000010      -6.40255848E-07
   2.20000005      -1.28618410E-06
   2.25000000      -1.54275563E-06
   2.29999995      -1.30413434E-06
   2.34999990      -6.10090979E-07
   2.40000010       3.55012077E-07
   2.45000005       1.30663796E-06
   2.50000000       1.93797177E-06
   2.54999995       2.01080206E-06
   2.59999990       1.43357045E-06
   2.65000010       3.02624414E-07
   2.70000005      -1.10833821E-06
   2.75000000      -2.41168277E-06
   2.79999995      -3.20789763E-06
   2.84999990      -3.19987089E-06
   2.90000010      -2.28751401E-06
   2.95000005      -6.14211160E-07
   3.00000000       1.45164177E-06
   3.04999995       3.39941698E-06
   3.09999990       4.70447731E-06
   3.15000010       4.96898474E-06
   3.20000005       4.03697595E-06
   3.25000000       2.05051811E-06
   3.29999995      -5.71407440E-07
   3.34999990      -3.22894175E-06
   3.40000010      -5.28900136E-06
   3.45000005      -6.24610539E-06
   3.50000000      -5.85316866E-06
   3.54999995      -4.18641503E-06
   3.59999990      -1.62623132E-06
   3.65000010       1.24103997E-06
   3.70000005       3.77341166E-06
   3.75000000       5.43429724E-06
   3.79999995       5.92042079E-06
   3.84999990       5.22285927E-06
   3.90000010       3.60726517E-06
   3.95000005       1.52279222E-06
   4.00000000      -5.30693853E-07
   4.05000019      -2.13682893E-06
   4.09999990      -3.05984781E-06
   4.15000010      -3.27931730E-06
   4.19999981      -2.95772793E-06
   4.25000000      -2.35709535E-06
   4.30000019      -1.73563001E-06
   4.34999990      -1.25982535E-06
   4.40000010      -9.60056923E-07
   4.44999981      -7.41752558E-07
   4.50000000      -4.44875496E-07
   4.55000019       7.17344122E-08
   4.59999990       8.52553796E-07
   4.65000010       1.80285485E-06
   4.69999981       2.69820021E-06
   4.75000000       3.24537928E-06
   4.80000019       3.17722538E-06
   4.84999990       2.35231778E-06
   4.90000010       8.27999088E-07
   4.94999981      -1.11811687E-06
   5.00000000      -3.02911235E-06
   5.05000019      -4.36623168E-06
   5.09999990      -4.64146751E-06
   5.15000010      -3.55383122E-06
   5.19999981      -1.09542111E-06
   5.25000000       2.40103441E-06
   5.30000019       6.28927637E-06
   5.34999990       9.71104691E-06
   5.40000010       1.17547970E-05
   5.44999981       1.16399833E-05
   5.50000000       8.88717113E-06
   5.55000019       3.43436545E-06
   5.59999990      -4.33035257E-06
   5.65000010      -1.36319468E-05
   5.69999981      -2.34568870E-05
   5.75000000      -3.27548769E-05
   5.80000019      -4.06471845E-05
   5.84999990      -4.65924677E-05
   5.90000010      -5.04724667E-05
   5.94999981      -5.25827963E-05
   6.00000000      -5.35418294E-05
   6.05000019      -5.41535774E-05
   6.09999990      -5.52704987E-05
   6.15000010      -5.76947059E-05
   6.19999981      -6.21336658E-05
   6.25000000      -6.91974710E-05
   6.30000019      -7.94017906E-05
   6.34999990      -9.31354880E-05
   6.40000010      -1.10569315E-04
   6.44999981      -1.31518042E-04
   6.50000000      -1.55309521E-04
   6.55000019      -1.80740884E-04
   6.59999990      -2.06198194E-04
   6.65000010      -2.29974161E-04
   6.69999981      -2.50747718E-04
   6.75000000      -2.68111064E-04
   6.80000019      -2.82975467E-04
   6.84999990      -2.97683699E-04
   6.90000010      -3.15717858E-04
   6.94999981      -3.41007340E-04
   7.00000000      -3.76978394E-04
   7.05000019      -4.25600505E-04
   7.09999990      -4.86730016E-04
   7.15000010      -5.57999127E-04
   7.19999981      -6.35355827E-04
   7.25000000      -7.14164227E-04
   7.30000019      -7.90586229E-04
   7.34999990      -8.62846733E-04
   7.40000010      -9.31990042E-04
   7.44999981      -1.00186339E-03
   7.50000000      -1.07829005E-03
   7.55000019      -1.16764533E-03
   7.59999990      -1.27524603E-03
   7.65000010      -1.40403397E-03
   7.69999981      -1.55396003E-03
   7.75000000      -1.72226224E-03
   7.80000019      -1.90456305E-03
   7.84999990      -2.09645554E-03
   7.90000010      -2.29510572E-03
   7.94999981      -2.50039832E-03
   8.00000000      -2.71530449E-03
   8.05000019      -2.94539076E-03
   8.10000038      -3.19764786E-03
   8.14999962      -3.47900856E-03
   8.19999981      -3.79498536E-03
   8.25000000      -4.14879201E-03
   8.30000019      -4.54115355E-03
   8.35000038      -4.97078616E-03
   8.39999962      -5.43535873E-03
   8.44999981      -5.93265332E-03
   8.50000000      -6.46161102E-03
   8.55000019      -7.02305045E-03
   8.60000038      -7.61993835E-03
   8.64999962      -8.25721677E-03
   8.69999981      -8.94127693E-03
   8.75000000      -9.67921596E-03
   8.80000019      -1.04780458E-02
   8.85000038      -1.13440128E-02
   8.89999962      -1.22821731E-02
   8.94999981      -1.32963574E-02
   9.00000000      -1.43895550E-02
   9.05000019      -1.55646736E-02
   9.10000038      -1.68255139E-02
   9.14999962      -1.81776732E-02
   9.19999981      -1.96290445E-02
   9.25000000      -2.11896598E-02
   9.30000019      -2.28707790E-02
   9.35000038      -2.46833805E-02
   9.39999962      -2.66364831E-02
   9.44999981      -2.87358817E-02
   9.50000000      -3.09838429E-02
   9.55000019      -3.33800763E-02
   9.60000038      -3.59239243E-02
   9.64999962      -3.86172421E-02
   9.69999981      -4.14671116E-02
   9.75000000      -4.44875285E-02
   9.80000019      -4.76993099E-02
   9.85000038      -5.11281416E-02
   9.89999962      -5.48011325E-02
   9.94999981      -5.87429106E-02
   10.0000000      -6.29723221E-02
   10.0500002      -6.75009117E-02
   10.1000004      -7.23335519E-02
   10.1499996      -7.74711445E-02
   10.1999998      -8.29145610E-02
   10.2500000      -8.86685699E-02
   10.3000002      -9.47447717E-02
   10.3500004     -0.101162605    
   10.3999996     -0.107948534    
   10.4499998     -0.115133636    
   10.5000000     -0.122750647    
   10.5500002     -0.130831331    
   10.6000004     -0.139404684    
   10.6499996     -0.148496166    
   10.6999998     -0.158127889    
   10.7500000     -0.168319091    
   10.8000002     -0.179086760    
   10.8500004     -0.190446287    
   10.8999996     -0.202412412    
   10.9499998     -0.215000674    
   11.0000000     -0.228229731    
   11.0500002     -0.242123932    
   11.1000004     -0.256715506    
   11.1499996     -0.272045583    
   11.1999998     -0.288162917    
   11.2500000     -0.305120379    
   11.3000002     -0.322969615    
   11.3500004     -0.341755837    
   11.3999996     -0.361513734    
   11.4499998     -0.382267177    
   11.5000000     -0.404032230    
   11.5500002     -0.426823080    
   11.6000004     -0.450659424    
   11.6499996     -0.475571871    
   11.6999998     -0.501604259    
   11.7500000     -0.528811157    
   11.8000002     -0.557251871    
   11.8500004     -0.586983085    
   11.8999996     -0.618052006    
   11.9499998     -0.650494218    
   12.0000000     -0.684335709    
   12.0500002     -0.719598949    
   12.1000004     -0.756310463    
   12.1499996     -0.794506609    
   12.1999998     -0.834235728    
   12.2500000     -0.875555098    
   12.3000002     -0.918524802    
   12.3500004     -0.963200092    
   12.3999996      -1.00962698    
   12.4499998      -1.05784202    
   12.5000000      -1.10787749    
   12.5500002      -1.15976822    
   12.6000004      -1.21355867    
   12.6499996      -1.26930499    
   12.6999998      -1.32707143    
   12.7500000      -1.38692105    
   12.8000002      -1.44890535    
   12.8500004      -1.51305604    
   12.8999996      -1.57938492    
   12.9499998      -1.64789081    
   13.0000000      -1.71857357    
   13.0500002      -1.79144895    
   13.1000004      -1.86655843    
   13.1499996      -1.94396961    
   13.1999998      -2.02376485    
   13.2500000      -2.10602331    
   13.3000002      -2.19080019    
   13.3500004      -2.27811575    
   13.3999996      -2.36795616    
   13.4499998      -2.46028829    
   13.5000000      -2.55508518    
   13.5500002      -2.65234971    
   13.6000004      -2.75212979    
   13.6499996      -2.85451555    
   13.6999998      -2.95961905    
   13.7500000      -3.06754065    
   13.8000002      -3.17833853    
   13.8500004      -3.29200745    
   13.8999996      -3.40848064    
   13.9499998      -3.52765417    
   14.0000000      -3.64942384    
   14.0500002      -3.77372622    
   14.1000004      -3.90056205    
   14.1499996      -4.02999878    
   14.1999998      -4.16214657    
   14.2500000      -4.29711580    
   14.3000002      -4.43497372    
   14.3500004      -4.57571602    
   14.3999996      -4.71926641    
   14.4499998      -4.86550188    
   14.5000000      -5.01429701    
   14.5500002      -5.16557026    
   14.6000004      -5.31931019    
   14.6499996      -5.47557878    
   14.6999998      -5.63447762    
   14.7500000      -5.79610205    
   14.8000002      -5.96049356    
   14.8500004      -6.12761068    
   14.8999996      -6.29733324    
   14.9499998      -6.46949577    
   15.0000000      -6.64393759    
   15.0500002      -6.82055426    
   15.1000004      -6.99931765    
   15.1499996      -7.18027258    
   15.1999998      -7.36349773    
   15.2500000      -7.54904699    
   15.3000002      -7.73690987    
   15.3500004      -7.92698717    
   15.3999996      -8.11911201    
   15.4499998      -8.31309891    
   15.5000000      -8.50879860    
   15.5500002      -8.70615292    
   15.6000004      -8.90519810    
   15.6499996      -9.10604668    
   15.6999998      -9.30881119    
   15.7500000      -9.51354313    
   15.8000002      -9.72018433    
   15.8500004      -9.92854977    
   15.8999996      -10.1383801    
   15.9499998      -10.3494072    
   16.0000000      -10.5614367    
   16.0499992      -10.7744026    
   16.1000004      -10.9883757    
   16.1499996      -11.2035093    
   16.2000008      -11.4199581    
   16.2500000      -11.6377945    
   16.2999992      -11.8569431    
   16.3500004      -12.0771904    
   16.3999996      -12.2982378    
   16.4500008      -12.5197983    
   16.5000000      -12.7416887    
   16.5499992      -12.9638853    
   16.6000004      -13.1865168    
   16.6499996      -13.4097919    
   16.7000008      -13.6338940    
   16.7500000      -13.8588867    
   16.7999992      -14.0846519    
   16.8500004      -14.3109159    
   16.8999996      -14.5373297    
   16.9500008      -14.7635832    
   17.0000000      -14.9895182    
   17.0499992      -15.2151661    
   17.1000004      -15.4407358    
   17.1499996      -15.6665068    
   17.2000008      -15.8927031    
   17.2500000      -16.1193905    
   17.2999992      -16.3464165    
   17.3500004      -16.5734577    
   17.3999996      -16.8001270    
   17.4500008      -17.0261097    
   17.5000000      -17.2512817    
   17.5499992      -17.4757538    
   17.6000004      -17.6998158    
   17.6499996      -17.9238224    
   17.7000008      -18.1480389    
   17.7500000      -18.3725281    
   17.7999992      -18.5971088    
   17.8500004      -18.8214130    
   17.8999996      -19.0450287    
   17.9500008      -19.2676487    
   18.0000000      -19.4891872    
   18.0499992      -19.7098122    
   18.1000004      -19.9298744    
   18.1499996      -20.1497574    
   18.2000008      -20.3697243    
   18.2500000      -20.5897999    
   18.2999992      -20.8097553    
   18.3500004      -21.0291977    
   18.3999996      -21.2477245    
   18.4500008      -21.4650860    
   18.5000000      -21.6812935    
   18.5499992      -21.8966141    
   18.6000004      -22.1114750    
   18.6499996      -22.3262863    
   18.7000008      -22.5412769    
   18.7500000      -22.7564106    
   18.7999992      -22.9713745    
   18.8500004      -23.1857319    
   18.8999996      -23.3990860    
   18.9500008      -23.6112556    
   19.0000000      -23.8223591    
   19.0499992      -24.0327759    
   19.1000004      -24.2430115    
   19.1499996      -24.4534912    
   19.2000008      -24.6643925    
   19.2500000      -24.8755779    
   19.2999992      -25.0866356    
   19.3500004      -25.2970505    
   19.3999996      -25.5064201    
   19.4500008      -25.7146111    
   19.5000000      -25.9218330    
   19.5499992      -26.1285706    
   19.6000004      -26.3353939    
   19.6499996      -26.5427361    
   19.7000008      -26.7507381    
   19.7500000      -26.9591866    
   19.7999992      -27.1676044    
   19.8500004      -27.3754520    
   19.8999996      -27.5823460    
   19.9500008      -27.7882175    
   20.0000000      -27.9933548    
   20.0499992      -28.1982937    
   20.1000004      -28.4036026    
   20.1499996      -28.6096554    
   20.2000008      -28.8164787    
   20.2500000      -29.0237389    
   20.2999992      -29.2308731    
   20.3500004      -29.4373055    
   20.3999996      -29.6426964    
   20.4500008      -29.8470707    
   20.5000000      -30.0508289    
   20.5499992      -30.2545795    
   20.6000004      -30.4589043    
   20.6499996      -30.6641216    
   20.7000008      -30.8701611    
   20.7500000      -31.0765648    
   20.7999992      -31.2826786    
   20.8500004      -31.4878960    
   20.8999996      -31.6918869    
   20.9500008      -31.8947163    
   21.0000000      -32.0968323    
   21.0499992      -32.2988472    
   21.1000004      -32.5013161    
   21.1499996      -32.7044754    
   21.2000008      -32.9081688    
   21.2500000      -33.1118851    
   21.2999992      -33.3149490    
   21.3500004      -33.5168076    
   21.3999996      -33.7172012    
   21.4500008      -33.9162750    
   21.5000000      -34.1144829    
   21.5499992      -34.3123817    
   21.6000004      -34.5103531    
   21.6499996      -34.7084351    
   21.7000008      -34.9062309    
   21.7500000      -35.1030579    
   21.7999992      -35.2981529    
   21.8500004      -35.4909477    
   21.8999996      -35.6812668    
   21.9500008      -35.8693619    
   22.0000000      -36.0557518    
   22.0499992      -36.2409935    
   22.1000004      -36.4253922    
   22.1499996      -36.6088295    
   22.2000008      -36.7907410    
   22.2500000      -36.9702721    
   22.2999992      -37.1465378    
   22.3500004      -37.3188972    
   22.3999996      -37.4871330    
   22.4500008      -37.6514587    
   22.5000000      -37.8123245    
   22.5499992      -37.9701920    
   22.6000004      -38.1252251    
   22.6499996      -38.2771568    
   22.7000008      -38.4252853    
   22.7500000      -38.5686417    
   22.7999992      -38.7062874    
   22.8500004      -38.8375511    
   22.8999996      -38.9621582    
   22.9500008      -39.0802307    
   23.0000000      -39.1920738    
   23.0499992      -39.2979164    
   23.1000004      -39.3976784    
   23.1499996      -39.4908333    
   23.2000008      -39.5764618    
   23.2500000      -39.6534691    
   23.2999992      -39.7208405    
   23.3500004      -39.7778778    
   23.3999996      -39.8243065    
   23.4500008      -39.8601875    
   23.5000000      -39.8857346    
   23.5499992      -39.9010162    
   23.6000004      -39.9057465    
   23.6499996      -39.8991737    
   23.7000008      -39.8801804    
   23.7500000      -39.8474846    
   23.7999992      -39.7999001    
   23.8500004      -39.7365761    
   23.8999996      -39.6570778    
   23.9500008      -39.5613022    
   24.0000000      -39.4492760    
   24.0499992      -39.3209190    
   24.1000004      -39.1758156    
   24.1499996      -39.0131607    
   24.2000008      -38.8318253    
   24.2500000      -38.6305542    
   24.2999992      -38.4082031    
   24.3500004      -38.1639175    
   24.3999996      -37.8971939    
   24.4500008      -37.6077881    
   24.5000000      -37.2955322    
   24.5499992      -36.9601288    
   24.6000004      -36.6009789    
   24.6499996      -36.2171516    
   24.7000008      -35.8074913    
   24.7500000      -35.3707962    
   24.7999992      -34.9060326    
   24.8500004      -34.4124870    
   24.8999996      -33.8897705    
   24.9500008      -33.3377419    
   25.0000000      -32.7563133    
   25.0499992      -32.1452599    
   25.1000004      -31.5040684    
   25.1499996      -30.8319397    
   25.2000008      -30.1278667    
   25.2500000      -29.3908234    
   25.2999992      -28.6199570    
   25.3500004      -27.8147144    
   25.3999996      -26.9748821    
   25.4500008      -26.1004925    
   25.5000000      -25.1916733    
   25.5499992      -24.2484722    
   25.6000004      -23.2707405    
   25.6499996      -22.2581005    
   25.7000008      -21.2100315    
   25.7500000      -20.1260090    
   25.7999992      -19.0056648    
   25.8500004      -17.8489017    
   25.8999996      -16.6559124    
   25.9500008      -15.4271250    
   26.0000000      -14.1630611    
   26.0499992      -12.8642025    
   26.1000004      -11.5308914    
   26.1499996      -10.1633110    
   26.2000008      -8.76154613    
   26.2500000      -7.32571268    
   26.2999992      -5.85609674    
   26.3500004      -4.35324430    
   26.3999996      -2.81799769    
   26.4500008      -1.25142717    
   26.5000000      0.345281154    
   26.5499992       1.97096741    
   26.6000004       3.62459302    
   26.6499996       5.30527735    
   26.7000008       7.01224518    
   26.7500000       8.74471378    
   26.7999992       10.5017605    
   26.8500004       12.2822094    
   26.8999996       14.0845871    
   26.9500008       15.9071598    
   27.0000000       17.7480431    
   27.0499992       19.6053371    
   27.1000004       21.4772434    
   27.1499996       23.3621254    
   27.2000008       25.2584858    
   27.2500000       27.1648788    
   27.2999992       29.0797653    
   27.3500004       31.0014248    
   27.3999996       32.9278526    
   27.4500008       34.8568039    
   27.5000000       36.7858810    
   27.5499992       38.7126770    
   27.6000004       40.6348953    
   27.6499996       42.5504303    
   27.7000008       44.4573708    
   27.7500000       46.3538857    
   27.7999992       48.2381287    
   27.8500004       50.1080627    
   27.8999996       51.9614220    
   27.9500008       53.7957268    
   28.0000000       55.6083603    
   28.0499992       57.3967514    
   28.1000004       59.1585083    
   28.1499996       60.8915062    
   28.2000008       62.5938759    
   28.2500000       64.2638931    
   28.2999992       65.8998566    
   28.3500004       67.4998856    
   28.3999996       69.0618973    
   28.4500008       70.5835800    
   28.5000000       72.0625458    
   28.5499992       73.4964905    
   28.6000004       74.8833694    
   28.6499996       76.2215042    
   28.7000008       77.5095596    
   28.7500000       78.7463913    
   28.7999992       79.9309387    
   28.8500004       81.0619583    
   28.8999996       82.1379929    
   28.9500008       83.1573792    
   29.0000000       84.1183929    
   29.0499992       85.0194473    
   29.1000004       85.8592758    
   29.1499996       86.6370468    
   29.2000008       87.3522873    
   29.2500000       88.0048065    
   29.2999992       88.5944214    
   29.3500004       89.1208267    
   29.3999996       89.5834656    
   29.4500008       89.9815750    
   29.5000000       90.3144302    
   29.5499992       90.5814590    
   29.6000004       90.7824936    
   29.6499996       90.9178162    
   29.7000008       90.9880981    
   29.7500000       90.9942551    
   29.7999992       90.9371643    
   29.8500004       90.8175125    
   29.8999996       90.6357193    
   29.9500008       90.3920059    
   30.0000000       90.0865936    
   30.0499992       89.7199173    
   30.1000004       89.2928391    
   30.1499996       88.8067017    
   30.2000008       88.2631836    
   30.2500000       87.6641541    
   30.2999992       87.0113831    
   30.3500004       86.3063660    
   30.3999996       85.5502853    
   30.4500008       84.7441330    
   30.5000000       83.8888931    
   30.5499992       82.9858170    
   30.6000004       82.0365677    
   30.6499996       81.0432281    
   30.7000008       80.0081863    
   30.7500000       78.9338837    
   30.7999992       77.8225784    
   30.8500004       76.6761932    
   30.8999996       75.4962845    
   30.9500008       74.2842178    
   31.0000000       73.0413971    
   31.0499992       71.7694778    
   31.1000004       70.4705200    
   31.1499996       69.1469498    
   31.2000008       67.8014221    
   31.2500000       66.4365082    
   31.2999992       65.0545044    
   31.3500004       63.6572990    
   31.3999996       62.2463951    
   31.4500008       60.8231049    
   31.5000000       59.3887901    
   31.5499992       57.9450798    
   31.6000004       56.4939575    
   31.6499996       55.0377121    
   31.7000008       53.5787544    
   31.7500000       52.1193275    
   31.7999992       50.6613350    
   31.8500004       49.2062454    
   31.8999996       47.7551880    
   31.9500008       46.3091316    
   32.0000000       44.8691597    
   32.0499992       43.4366150    
   32.0999985       42.0131645    
   32.1500015       40.6006813    
   32.2000008       39.2010384    
   32.2500000       37.8158569    
   32.2999992       36.4463577    
   32.3499985       35.0933151    
   32.4000015       33.7572212    
   32.4500008       32.4384995    
   32.5000000       31.1377201    
   32.5499992       29.8557701    
   32.5999985       28.5938244    
   32.6500015       27.3532009    
   32.7000008       26.1351261    
   32.7500000       24.9405155    
   32.7999992       23.7698460    