  -10.0000000       0.00000000    
  -9.94999981       0.00000000    
  -9.89999962       0.00000000    
  -9.85000038       0.00000000    
  -9.80000019       0.00000000    
  -9.75000000       0.00000000    
  -9.69999981       0.00000000    
  -9.64999962       0.00000000    
  -9.60000038       0.00000000    
  -9.55000019       2.38579025E-26
  -9.50000000       1.68141745E-25
  -9.44999981       2.99207127E-25
  -9.39999962      -8.87594243E-26
  -9.35000038       1.16836256E-23
  -9.30000019       1.49394112E-22
  -9.25000000       9.22332030E-22
  -9.19999981       3.80153994E-21
  -9.14999962       1.14999487E-20
  -9.10000038       2.58266725E-20
  -9.05000019       3.91352880E-20
  -9.00000000       1.67430209E-20
  -8.94999981      -1.21313714E-19
  -8.89999962      -4.85742428E-19
  -8.85000038      -1.10810428E-18
  -8.80000019      -1.67912670E-18
  -8.75000000      -1.18703623E-18
  -8.69999981       2.23274493E-18
  -8.64999962       1.05840109E-17
  -8.60000038       2.36593871E-17
  -8.55000019       3.49201972E-17
  -8.50000000       2.73743661E-17
  -8.44999981      -2.57961915E-17
  -8.39999962      -1.48691208E-16
  -8.35000038      -3.32639897E-16
  -8.30000019      -4.92684602E-16
  -8.25000000      -4.33817824E-16
  -8.19999981       1.26901364E-16
  -8.14999962       1.42614588E-15
  -8.10000038       3.37960894E-15
  -8.05000019       5.22510908E-15
  -8.00000000       5.28229482E-15
  -7.94999981       1.16610496E-15
  -7.90000010      -9.18653395E-15
  -7.84999990      -2.55521160E-14
  -7.80000019      -4.29712181E-14
  -7.75000000      -5.01007859E-14
  -7.69999981      -3.03834072E-14
  -7.65000010       3.19465320E-14
  -7.59999990       1.40394342E-13
  -7.55000019       2.71750450E-13
  -7.50000000       3.65355749E-13
  -7.44999981       3.26338457E-13
  -7.40000010       5.30775680E-14
  -7.34999990      -5.07274940E-13
  -7.30000019      -1.28535106E-12
  -7.25000000      -2.02718268E-12
  -7.19999981      -2.28795954E-12
  -7.15000010      -1.52886688E-12
  -7.09999990       6.59799418E-13
  -7.05000019       4.23981770E-12
  -7.00000000       8.41532226E-12
  -6.94999981       1.15042507E-11
  -6.90000010       1.11820570E-11
  -6.84999990       5.21850358E-12
  -6.80000019      -7.34984643E-12
  -6.75000000      -2.49273657E-11
  -6.69999981      -4.25164765E-11
  -6.65000010      -5.20084947E-11
  -6.59999990      -4.41329091E-11
  -6.55000019      -1.20817757E-11
  -6.50000000       4.39697237E-11
  -6.44999981       1.13072975E-10
  -6.40000010       1.72589221E-10
  -6.34999990       1.92059493E-10
  -6.30000019       1.42533457E-10
  -6.25000000       9.86949324E-12
  -6.19999981      -1.91996030E-10
  -6.15000010      -4.13679757E-10
  -6.09999990      -5.74824799E-10
  -6.05000019      -5.83797843E-10
  -6.00000000      -3.70795977E-10
  -5.94999981       7.40699030E-11
  -5.90000010       6.71852518E-10
  -5.84999990       1.25100730E-09
  -5.80000019       1.58045810E-09
  -5.75000000       1.44004242E-09
  -5.69999981       7.13229364E-10
  -5.65000010      -5.28151800E-10
  -5.59999990      -1.98531902E-09
  -5.55000019      -3.17276561E-09
  -5.50000000      -3.54866070E-09
  -5.44999981      -2.71302825E-09
  -5.40000010      -6.15196116E-10
  -5.34999990       2.31198505E-09
  -5.30000019       5.17106402E-09
  -5.25000000       6.81503254E-09
  -5.19999981       6.23412166E-09
  -5.15000010       3.01065928E-09
  -5.09999990      -2.32373498E-09
  -5.05000019      -8.20742585E-09
  -5.00000000      -1.23663213E-08
  -4.94999981      -1.25259119E-08
  -4.90000010      -7.35023997E-09
  -4.84999990       2.70579203E-09
  -4.80000019       1.50071315E-08
  -4.75000000       2.51168899E-08
  -4.69999981       2.80290831E-08
  -4.65000010       2.00235633E-08
  -4.59999990       5.89520932E-10
  -4.55000019      -2.63309872E-08
  -4.50000000      -5.24817096E-08
  -4.44999981      -6.71767992E-08
  -4.40000010      -6.07154433E-08
  -4.34999990      -2.84502519E-08
  -4.30000019       2.58712181E-08
  -4.25000000       8.89827589E-08
  -4.19999981       1.40251217E-07
  -4.15000010       1.57206841E-07
  -4.09999990       1.23309391E-07
  -4.05000019       3.56658667E-08
  -4.00000000      -9.01612012E-08
  -3.95000005      -2.20773842E-07
  -3.90000010      -3.12146085E-07
  -3.84999990      -3.22461744E-07
  -3.79999995      -2.27353453E-07
  -3.75000000      -3.26847456E-08
  -3.70000005       2.20231371E-07
  -3.65000010       4.60554446E-07
  -3.59999990       6.05410037E-07
  -3.54999995       5.85407633E-07
  -3.50000000       3.71071991E-07
  -3.45000005      -8.72680062E-09
  -3.40000010      -4.64308954E-07
  -3.34999990      -8.62737807E-07
  -3.29999995      -1.06336950E-06
  -3.25000000      -9.62847594E-07
  -3.20000005      -5.36188736E-07
  -3.15000010       1.40510863E-07
  -3.09999990       8.96606480E-07
  -3.04999995       1.50561652E-06
  -3.00000000       1.74881734E-06
  -2.95000005       1.48694710E-06
  -2.90000010       7.17845580E-07
  -2.84999990      -4.00982231E-07
  -2.79999995      -1.57759962E-06
  -2.75000000      -2.45764340E-06
  -2.70000005      -2.72668285E-06
  -2.65000010      -2.21434516E-06
  -2.59999990      -9.67143251E-07
  -2.54999995       7.37356686E-07
  -2.50000000       2.44702846E-06
  -2.45000005       3.65318579E-06
  -2.40000010       3.94014523E-06
  -2.34999990       3.12285215E-06
  -2.29999995       1.32796595E-06
  -2.25000000      -1.01308137E-06
  -2.20000005      -3.26590521E-06
  -2.15000010      -4.76734385E-06
  -2.09999990      -5.02434068E-06
  -2.04999995      -3.87757427E-06
  -2.00000000      -1.57558441E-06
  -1.95000005       1.27130545E-06
  -1.89999998       3.85251087E-06
  -1.85000002       5.39243001E-06
  -1.79999995       5.39101893E-06
  -1.75000000       3.79437506E-06
  -1.70000005       1.03666787E-06
  -1.64999998      -2.06850973E-06
  -1.60000002      -4.56279349E-06
  -1.54999995      -5.63720187E-06
  -1.50000000      -4.89581953E-06
  -1.45000005      -2.50299172E-06
  -1.39999998       8.39969459E-07
  -1.35000002       4.09099175E-06
  -1.29999995       6.18310014E-06
  -1.25000000       6.36483128E-06
  -1.20000005       4.45669411E-06
  -1.14999998       9.36393917E-07
  -1.10000002      -3.18339789E-06
  -1.04999995      -6.65504376E-06
  -1.00000000      -8.38420692E-06
 -0.949999988      -7.78333379E-06
 -0.899999976      -4.97287510E-06
 -0.850000024      -7.57804230E-07
 -0.800000012       3.62115247E-06
 -0.750000000       6.88632508E-06
 -0.699999988       8.14226860E-06
 -0.649999976       7.17262947E-06
 -0.600000024       4.50748030E-06
 -0.550000012       1.22870586E-06
 -0.500000000      -1.42818487E-06
 -0.449999988      -2.54132328E-06
 -0.400000006      -1.87074590E-06
 -0.349999994       1.63567773E-08
 -0.300000012       1.92947709E-06
 -0.250000000       2.50524431E-06
 -0.200000003       7.78863352E-07
 -0.150000006      -3.32937998E-06
 -0.100000001      -8.81000506E-06
  -5.00000007E-02  -1.37588058E-05
   5.55111512E-16  -1.59533120E-05
   5.00000007E-02  -1.36520075E-05
  0.100000001      -6.35430524E-06
  0.150000006       4.76268497E-06
  0.200000003       1.69382438E-05
  0.250000000       2.65012859E-05
  0.300000012       2.99740223E-05
  0.349999994       2.52865975E-05
  0.400000006       1.27006488E-05
  0.449999988      -4.91548326E-06
  0.500000000      -2.26453321E-05
  0.550000012      -3.48457470E-05
  0.600000024      -3.68958536E-05
  0.649999976      -2.68528420E-05
  0.699999988      -6.45843966E-06
  0.750000000       1.89170460E-05
  0.800000012       4.15114700E-05
  0.850000024       5.33394814E-05
  0.899999976       4.87155958E-05
  0.949999988       2.63741294E-05
   1.00000000      -9.53033668E-06
   1.04999995      -4.99862763E-05
   1.10000002      -8.32568039E-05
   1.14999998      -9.80986952E-05
   1.20000005      -8.72039454E-05
   1.25000000      -4.98453082E-05
   1.29999995       7.14927955E-06
   1.35000002       7.05455168E-05
   1.39999998       1.23831851E-04
   1.45000005       1.51584973E-04
   1.50000000       1.43902667E-04
   1.54999995       9.96259914E-05
   1.60000002       2.73348014E-05
   1.64999998      -5.63213507E-05
   1.70000005      -1.30650777E-04
   1.75000000      -1.76302288E-04
   1.79999995      -1.80555173E-04
   1.85000002      -1.41022931E-04
   1.89999998      -6.66616324E-05
   1.95000005       2.43038721E-05
   2.00000000       1.09059190E-04
   2.04999995       1.66251077E-04
   2.09999990       1.81748183E-04
   2.15000010       1.52489389E-04
   2.20000005       8.73051758E-05
   2.25000000       4.43804902E-06
   2.29999995      -7.35732756E-05
   2.34999990      -1.26219922E-04
   2.40000010      -1.40771881E-04
   2.45000005      -1.15817245E-04
   2.50000000      -6.15884346E-05
   2.54999995       3.00022657E-06
   2.59999990       5.57274725E-05
   2.65000010       7.72804633E-05
   2.70000005       5.65087394E-05
   2.75000000      -6.77917569E-06
   2.79999995      -1.02221435E-04
   2.84999990      -2.12287559E-04
   2.90000010      -3.17529135E-04
   2.95000005      -4.02046251E-04
   3.00000000      -4.57501097E-04
   3.04999995      -4.84514603E-04
   3.09999990      -4.91151935E-04
   3.15000010      -4.89155354E-04
   3.20000005      -4.89316008E-04
   3.25000000      -4.97642497E-04
   3.29999995      -5.13692969E-04
   3.34999990      -5.31676633E-04
   3.40000010      -5.43941336E-04
   3.45000005      -5.45583142E-04
   3.50000000      -5.38434309E-04
   3.54999995      -5.32803999E-04
   3.59999990      -5.46035648E-04
   3.65000010      -5.98017534E-04
   3.70000005      -7.04883540E-04
   3.75000000      -8.72904668E-04
   3.79999995      -1.09471590E-03
   3.84999990      -1.34945335E-03
   3.90000010      -1.60723506E-03
   3.95000005      -1.83703832E-03
   4.00000000      -2.01584189E-03
   4.05000019      -2.13631452E-03
   4.09999990      -2.21056212E-03
   4.15000010      -2.26848479E-03
   4.19999981      -2.35084910E-03
   4.25000000      -2.49879621E-03
   4.30000019      -2.74269073E-03
   4.34999990      -3.09355557E-03
   4.40000010      -3.53971310E-03
   4.44999981      -4.04981244E-03
   4.50000000      -4.58156876E-03
   4.55000019      -5.09384368E-03
   4.59999990      -5.55865979E-03
   4.65000010      -5.96971437E-03
   4.69999981      -6.34495122E-03
   4.75000000      -6.72248285E-03
   4.80000019      -7.15108681E-03
   4.84999990      -7.67808501E-03
   4.90000010      -8.33812915E-03
   4.94999981      -9.14605707E-03
   5.00000000      -1.00956885E-02
   5.05000019      -1.11646019E-02
   5.09999990      -1.23231243E-02
   5.15000010      -1.35445790E-02
   5.19999981      -1.48135982E-02
   5.25000000      -1.61300879E-02
   5.30000019      -1.75079722E-02
   5.34999990      -1.89695731E-02
   5.40000010      -2.05379184E-02
   5.44999981      -2.22298875E-02
   5.50000000      -2.40526889E-02
   5.55000019      -2.60049626E-02
   5.59999990      -2.80820876E-02
   5.65000010      -3.02837379E-02
   5.69999981      -3.26208323E-02
   5.75000000      -3.51190902E-02
   5.80000019      -3.78175117E-02
   5.84999990      -4.07616980E-02
   5.90000010      -4.39938158E-02
   5.94999981      -4.75423075E-02
   6.00000000      -5.14147505E-02
   6.05000019      -5.55966012E-02
   6.09999990      -6.00568876E-02
   6.15000010      -6.47597685E-02
   6.19999981      -6.96790144E-02
   6.25000000      -7.48113915E-02
   6.30000019      -8.01847205E-02
   6.34999990      -8.58581364E-02
   6.40000010      -9.19136405E-02
   6.44999981      -9.84410048E-02
   6.50000000     -0.105519637    
   6.55000019     -0.113202550    
   6.59999990     -0.121506810    
   6.65000010     -0.130413532    
   6.69999981     -0.139877826    
   6.75000000     -0.149846479    
   6.80000019     -0.160278633    
   6.84999990     -0.171164393    
   6.90000010     -0.182535723    
   6.94999981     -0.194466889    
   7.00000000     -0.207063824    
   7.05000019     -0.220445022    
   7.09999990     -0.234719276    
   7.15000010     -0.249965876    
   7.19999981     -0.266223162    
   7.25000000     -0.283488512    
   7.30000019     -0.301729888    
   7.34999990     -0.320906341    
   7.40000010     -0.340990901    
   7.44999981     -0.361990213    
   7.50000000     -0.383955061    
   7.55000019     -0.406977981    
   7.59999990     -0.431179672    
   7.65000010     -0.456686854    
   7.69999981     -0.483608544    
   7.75000000     -0.512017787    
   7.80000019     -0.541943550    
   7.84999990     -0.573376119    
   7.90000010     -0.606283784    
   7.94999981     -0.640636086    
   8.00000000     -0.676426888    
   8.05000019     -0.713690341    
   8.10000038     -0.752504528    
   8.14999962     -0.792982936    
   8.19999981     -0.835254252    
   8.25000000     -0.879439533    
   8.30000019     -0.925631166    
   8.35000038     -0.973880887    
   8.39999962      -1.02420080    
   8.44999981      -1.07657611    
   8.50000000      -1.13098586    
   8.55000019      -1.18742394    
   8.60000038      -1.24591684    
   8.64999962      -1.30652976    
   8.69999981      -1.36936009    
   8.75000000      -1.43452358    
   8.80000019      -1.50213253    
   8.85000038      -1.57227778    
   8.89999962      -1.64501512    
   8.94999981      -1.72036386    
   9.00000000      -1.79831409    
   9.05000019      -1.87884057    
   9.10000038      -1.96192086    
   9.14999962      -2.04754829    
   9.19999981      -2.13574004    
   9.25000000      -2.22653866    
   9.30000019      -2.32000208    
   9.35000038      -2.41619349    
   9.39999962      -2.51517034    
   9.44999981      -2.61697412    
   9.50000000      -2.72162724    
   9.55000019      -2.82913184    
   9.60000038      -2.93947625    
   9.64999962      -3.05264139    
   9.69999981      -3.16860557    
   9.75000000      -3.28734899    
   9.80000019      -3.40885639    
   9.85000038      -3.53311563    
   9.89999962      -3.66011429    
   9.94999981      -3.78983688    
   10.0000000      -3.92226100    
   10.0500002      -4.05735588    
   10.1000004      -4.19508028    
   10.1499996      -4.33538675    
   10.1999998      -4.47822237    
   10.2500000      -4.62353611    
   10.3000002      -4.77128029    
   10.3500004      -4.92141581    
   10.3999996      -5.07390976    
   10.4499998      -5.22873259    
   10.5000000      -5.38585043    
   10.5500002      -5.54521179    
   10.6000004      -5.70674038    
   10.6499996      -5.87032795    
   10.6999998      -6.03583527    
   10.7500000      -6.20310020    
   10.8000002      -6.37195635    
   10.8500004      -6.54224634    
   10.8999996      -6.71384239    
   10.9499998      -6.88665438    
   11.0000000      -7.06062889    
   11.0500002      -7.23573732    
   11.1000004      -7.41195583    
   11.1499996      -7.58924007    
   11.1999998      -7.76750994    
   11.2500000      -7.94663906    
   11.3000002      -8.12645721    
   11.3500004      -8.30676746    
   11.3999996      -8.48736382    
   11.4499998      -8.66805363    
   11.5000000      -8.84867382    
   11.5500002      -9.02909279    
   11.6000004      -9.20920181    
   11.6499996      -9.38890457    
   11.6999998      -9.56810093    
   11.7500000      -9.74666977    
   11.8000002      -9.92447472    
   11.8500004      -10.1013622    
   11.8999996      -10.2771797    
   11.9499998      -10.4517851    
   12.0000000      -10.6250544    
   12.0500002      -10.7968884    
   12.1000004      -10.9672022    
   12.1499996      -11.1359110    
   12.1999998      -11.3029222    
   12.2500000      -11.4681215    
   12.3000002      -11.6313753    
   12.3500004      -11.7925339    
   12.3999996      -11.9514475    
   12.4499998      -12.1079798    
   12.5000000      -12.2620173    
   12.5500002      -12.4134741    
   12.6000004      -12.5622854    
   12.6499996      -12.7083960    
   12.6999998      -12.8517485    
   12.7500000      -12.9922781    
   12.8000002      -13.1299047    
   12.8500004      -13.2645445    
   12.8999996      -13.3961153    
   12.9499998      -13.5245495    
   13.0000000      -13.6498032    
   13.0500002      -13.7718601    
   13.1000004      -13.8907232    
   13.1499996      -14.0064077    
   13.1999998      -14.1189308    
   13.2500000      -14.2282972    
   13.3000002      -14.3344984    
   13.3500004      -14.4375124    
   13.3999996      -14.5373116    
   13.4499998      -14.6338654    
   13.5000000      -14.7271538    
   13.5500002      -14.8171692    
   13.6000004      -14.9039221    
   13.6499996      -14.9874363    
   13.6999998      -15.0677528    
   13.7500000      -15.1449242    
   13.8000002      -15.2190180    
   13.8500004      -15.2901068    
   13.8999996      -15.3582764    
   13.9499998      -15.4236183    
   14.0000000      -15.4862251    
   14.0500002      -15.5461950    
   14.1000004      -15.6036148    
   14.1499996      -15.6585703    
   14.1999998      -15.7111340    
   14.2500000      -15.7613821    
   14.3000002      -15.8093815    
   14.3500004      -15.8552055    
   14.3999996      -15.8989363    
   14.4499998      -15.9406548    
   14.5000000      -15.9804516    
   14.5500002      -16.0184174    
   14.6000004      -16.0546455    
   14.6499996      -16.0892220    
   14.6999998      -16.1222458    
   14.7500000      -16.1538105    
   14.8000002      -16.1840286    
   14.8500004      -16.2130222    
   14.8999996      -16.2409363    
   14.9499998      -16.2679195    
   15.0000000      -16.2941399    
   15.0500002      -16.3197556    
   15.1000004      -16.3449268    
   15.1499996      -16.3697910    
   15.1999998      -16.3944530    
   15.2500000      -16.4189968    
   15.3000002      -16.4434662    
   15.3500004      -16.4678917    
   15.3999996      -16.4922886    
   15.4499998      -16.5166740    
   15.5000000      -16.5410786    
   15.5500002      -16.5655708    
   15.6000004      -16.5902557    
   15.6499996      -16.6152725    
   15.6999998      -16.6407814    
   15.7500000      -16.6669598    
   15.8000002      -16.6939774    
   15.8500004      -16.7219734    
   15.8999996      -16.7510567    
   15.9499998      -16.7812977    
   16.0000000      -16.8127384    
   16.0499992      -16.8454037    
   16.1000004      -16.8793144    
   16.1499996      -16.9145012    
   16.2000008      -16.9510002    
   16.2500000      -16.9888554    
   16.2999992      -17.0281048    
   16.3500004      -17.0687828    
   16.3999996      -17.1109142    
   16.4500008      -17.1545162    
   16.5000000      -17.1996193    
   16.5499992      -17.2462692    
   16.6000004      -17.2945328    
   16.6499996      -17.3445015    
   16.7000008      -17.3962841    
   16.7500000      -17.4499874    
   16.7999992      -17.5056915    
   16.8500004      -17.5634518    
   16.8999996      -17.6232910    
   16.9500008      -17.6851997    
   17.0000000      -17.7491646    
   17.0499992      -17.8151684    
   17.1000004      -17.8832092    
   17.1499996      -17.9532948    
   17.2000008      -18.0254383    
   17.2500000      -18.0996418    
   17.2999992      -18.1758976    
   17.3500004      -18.2541828    
   17.3999996      -18.3344765    
   17.4500008      -18.4167805    
   17.5000000      -18.5011330    
   17.5499992      -18.5876236    
   17.6000004      -18.6763897    
   17.6499996      -18.7675800    
   17.7000008      -18.8613319    
   17.7500000      -18.9577236    
   17.7999992      -19.0567684    
   17.8500004      -19.1583920    
   17.8999996      -19.2624874    
   17.9500008      -19.3689346    
   18.0000000      -19.4776497    
   18.0499992      -19.5886250    
   18.1000004      -19.7019215    
   18.1499996      -19.8176517    
   18.2000008      -19.9359531    
   18.2500000      -20.0569382    
   18.2999992      -20.1806660    
   18.3500004      -20.3071423    
   18.3999996      -20.4363327    
   18.4500008      -20.5682182    
   18.5000000      -20.7028141    
   18.5499992      -20.8402081    
   18.6000004      -20.9805336    
   18.6499996      -21.1239586    
   18.7000008      -21.2706184    
   18.7500000      -21.4205933    
   18.7999992      -21.5738621    
   18.8500004      -21.7303333    
   18.8999996      -21.8898830    
   18.9500008      -22.0523987    
   19.0000000      -22.2178593    
   19.0499992      -22.3863354    
   19.1000004      -22.5580006    
   19.1499996      -22.7330875    
   19.2000008      -22.9118118    
   19.2500000      -23.0943356    
   19.2999992      -23.2807236    
   19.3500004      -23.4709549    
   19.3999996      -23.6649628    
   19.4500008      -23.8626785    
   19.5000000      -24.0640907    
   19.5499992      -24.2692566    
   19.6000004      -24.4782944    
   19.6499996      -24.6913357    
   19.7000008      -24.9084797    
   19.7500000      -25.1297436    
   19.7999992      -25.3550682    
   19.8500004      -25.5843391    
   19.8999996      -25.8174400    
   19.9500008      -26.0543175    
   20.0000000      -26.2950191    
   20.0499992      -26.5396957    
   20.1000004      -26.7885590    
   20.1499996      -27.0418224    
   20.2000008      -27.2996330    
   20.2500000      -27.5620136    
   20.2999992      -27.8288536    
   20.3500004      -28.0999565    
   20.3999996      -28.3750858    
   20.4500008      -28.6540527    
   20.5000000      -28.9367523    
   20.5499992      -29.2231750    
   20.6000004      -29.5133858    
   20.6499996      -29.8074532    
   20.7000008      -30.1054020    
   20.7500000      -30.4071712    
   20.7999992      -30.7126141    
   20.8500004      -31.0215340    
   20.8999996      -31.3337269    
   20.9500008      -31.6490479    
   21.0000000      -31.9674244    
   21.0499992      -32.2888489    
   21.1000004      -32.6133270    
   21.1499996      -32.9408150    
   21.2000008      -33.2711868    
   21.2500000      -33.6042023    
   21.2999992      -33.9395180    
   21.3500004      -34.2767563    
   21.3999996      -34.6155739    
   21.4500008      -34.9556885    
   21.5000000      -35.2969208    
   21.5499992      -35.6391678    
   21.6000004      -35.9823418    
   21.6499996      -36.3263321    
   21.7000008      -36.6709366    
   21.7500000      -37.0158691    
   21.7999992      -37.3607521    
   21.8500004      -37.7051735    
   21.8999996      -38.0487404    
   21.9500008      -38.3911171    
   22.0000000      -38.7320213    
   22.0499992      -39.0712318    
   22.1000004      -39.4085197    
   22.1499996      -39.7436371    
   22.2000008      -40.0762711    
   22.2500000      -40.4060631    
   22.2999992      -40.7326126    
   22.3500004      -41.0555382    
   22.3999996      -41.3744774    
   22.4500008      -41.6891136    
   22.5000000      -41.9991531    
   22.5499992      -42.3042946    
   22.6000004      -42.6042137    
   22.6499996      -42.8985291    
   22.7000008      -43.1868210    
   22.7500000      -43.4686546    
   22.7999992      -43.7436256    
   22.8500004      -44.0113983    
   22.8999996      -44.2716942    
   22.9500008      -44.5242996    
   23.0000000      -44.7690201    
   23.0499992      -45.0056343    
   23.1000004      -45.2338638    
   23.1499996      -45.4533768    
   23.2000008      -45.6637955    
   23.2500000      -45.8647346    
   23.2999992      -46.0558624    
   23.3500004      -46.2369080    
   23.3999996      -46.4076691    
   23.4500008      -46.5679970    
   23.5000000      -46.7177429    
   23.5499992      -46.8567390    
   23.6000004      -46.9847717    
   23.6499996      -47.1016006    
   23.7000008      -47.2069893    
   23.7500000      -47.3007431    
   23.7999992      -47.3827400    
   23.8500004      -47.4529419    
   23.8999996      -47.5113525    
   23.9500008      -47.5579834    
   24.0000000      -47.5928078    
   24.0499992      -47.6157494    
   24.1000004      -47.6266594    
   24.1499996      -47.6254005    
   24.2000008      -47.6118584    
   24.2500000      -47.5860138    
   24.2999992      -47.5479660    
   24.3500004      -47.4978981    
   24.3999996      -47.4360542    
   24.4500008      -47.3626442    
   24.5000000      -47.2778244    
   24.5499992      -47.1816597    
   24.6000004      -47.0741463    
   24.6499996      -46.9552917    
   24.7000008      -46.8251457    
   24.7500000      -46.6838646    
   24.7999992      -46.5317268    
   24.8500004      -46.3690910    
   24.8999996      -46.1963425    
   24.9500008      -46.0138168    
   25.0000000      -45.8217621    
   25.0499992      -45.6203384    
   25.1000004      -45.4096603    
   25.1499996      -45.1898537    
   25.2000008      -44.9611244    
   25.2500000      -44.7238159    
   25.2999992      -44.4783745    
   25.3500004      -44.2253113    
   25.3999996      -43.9651375    
   25.4500008      -43.6982880    
   25.5000000      -43.4250908    
   25.5499992      -43.1457710    
   25.6000004      -42.8605042    
   25.6499996      -42.5694809    
   25.7000008      -42.2729645    
   25.7500000      -41.9713326    
   25.7999992      -41.6650467    
   25.8500004      -41.3546257    
   25.8999996      -41.0405388    
   25.9500008      -40.7231941    
   26.0000000      -40.4028969    
   26.0499992      -40.0798874    
   26.1000004      -39.7543869    
   26.1499996      -39.4266548    
   26.2000008      -39.0970383    
   26.2500000      -38.7659721    
   26.2999992      -38.4339371    
   26.3500004      -38.1014175    
   26.3999996      -37.7688217    
   26.4500008      -37.4364624    
   26.5000000      -37.1045494    
   26.5499992      -36.7732353    
   26.6000004      -36.4426651    
   26.6499996      -36.1130295    
   26.7000008      -35.7846069    
   26.7500000      -35.4577446    
   26.7999992      -35.1328278    
   26.8500004      -34.8102074    
   26.8999996      -34.4901619    
   26.9500008      -34.1728859    
   27.0000000      -33.8585129    
   27.0499992      -33.5471306    
   27.1000004      -33.2388649    
   27.1499996      -32.9338760    
   27.2000008      -32.6323891    
   27.2500000      -32.3346710    
   27.2999992      -32.0409622    
   27.3500004      -31.7514362    
   27.3999996      -31.4661999    
   27.4500008      -31.1852951    
   27.5000000      -30.9087276    
   27.5499992      -30.6365242    
   27.6000004      -30.3687725    
   27.6499996      -30.1056232    
   27.7000008      -29.8472614    
   27.7500000      -29.5938759    
   27.7999992      -29.3455887    
   27.8500004      -29.1024189    
   27.8999996      -28.8643017    
   27.9500008      -28.6310959    
   28.0000000      -28.4026680    
   28.0499992      -28.1789322    
   28.1000004      -27.9598961    
   28.1499996      -27.7456474    
   28.2000008      -27.5363140    
   28.2500000      -27.3320122    
   28.2999992      -27.1327858    
   28.3500004      -26.9385910    
   28.3999996      -26.7492962    
   28.4500008      -26.5647449    
   28.5000000      -26.3848019    
   28.5499992      -26.2093983    
   28.6000004      -26.0385513    
   28.6499996      -25.8723278    
   28.7000008      -25.7107906    
   28.7500000      -25.5539360    
   28.7999992      -25.4016476    
   28.8500004      -25.2537136    
   28.8999996      -25.1098537    
   28.9500008      -24.9697990    
   29.0000000      -24.8333702    
   29.0499992      -24.7005138    
   29.1000004      -24.5712986    
   29.1499996      -24.4458580    
   29.2000008      -24.3243198    
   29.2500000      -24.2067223    
   29.2999992      -24.0929699    
   29.3500004      -23.9828491    
   29.3999996      -23.8760624    
   29.4500008      -23.7723389    
   29.5000000      -23.6714783    
   29.5499992      -23.5734196    
   29.6000004      -23.4782028    
   29.6499996      -23.3859348    
   29.7000008      -23.2966919    
   29.7500000      -23.2104588    
   29.7999992      -23.1270847    
   29.8500004      -23.0463028    
   29.8999996      -22.9677982    
   29.9500008      -22.8912907    
   30.0000000      -22.8166142    
   30.0499992      -22.7437458    
   30.1000004      -22.6727924    
   30.1499996      -22.6039276    
   30.2000008      -22.5373077    
   30.2500000      -22.4729939    
   30.2999992      -22.4109249    
   30.3500004      -22.3509083    
   30.3999996      -22.2926960    
   30.4500008      -22.2360325    
   30.5000000      -22.1807308    
   30.5499992      -22.1266937    
   30.6000004      -22.0739155    
   30.6499996      -22.0224342    
   30.7000008      -21.9722710    
   30.7500000      -21.9233932    
   30.7999992      -21.8757000    
   30.8500004      -21.8290520    
   30.8999996      -21.7833099    
   30.9500008      -21.7383976    
   31.0000000      -21.6943340    
   31.0499992      -21.6512222    
   31.1000004      -21.6092224    
   31.1499996      -21.5684795    
   31.2000008      -21.5290604    
   31.2500000      -21.4909115    
   31.2999992      -21.4538574    
   31.3500004      -21.4176388    
   31.3999996      -21.3819733    
   31.4500008      -21.3466396    
   31.5000000      -21.3115139    
   31.5499992      -21.2765942    
   31.6000004      -21.2419815    
   31.6499996      -21.2078266    
   31.7000008      -21.1742649    
   31.7500000      -21.1413784    
   31.7999992      -21.1091557    
   31.8500004      -21.0775223    
   31.8999996      -21.0463753    
   31.9500008      -21.0156136    
   32.0000000      -20.9852028    
   32.0499992      -20.9551601    
   32.0999985      -20.9255562    
   32.1500015      -20.8964825    
   32.2000008      -20.8679981    
   32.2500000      -20.8401031    
   32.2999992      -20.8127251    
   32.3499985      -20.7857265    
   32.4000015      -20.7589512    
   32.4500008      -20.7322521    
   32.5000000      -20.7055378    
   32.5499992      -20.6787910    
   32.5999985      -20.6520672    
   32.6500015      -20.6254559    
   32.7000008      -20.5990658    
   32.7500000      -20.5729809    
   32.7999992      -20.5472355    