  -10.0000000       0.00000000    
  -9.94999981       0.00000000    
  -9.89999962       0.00000000    
  -9.85000038       0.00000000    
  -9.80000019       0.00000000    
  -9.75000000       0.00000000    
  -9.69999981       0.00000000    
  -9.64999962       0.00000000    
  -9.60000038       0.00000000    
  -9.55000019      -1.43149361E-21
  -9.50000000      -1.98625791E-20
  -9.44999981      -1.35680743E-19
  -9.39999962      -5.90896160E-19
  -9.35000038      -1.73745751E-18
  -9.30000019      -3.05487271E-18
  -9.25000000       3.69518511E-19
  -9.19999981       2.52650969E-17
  -9.14999962       1.08584813E-16
  -9.10000038       3.02406406E-16
  -9.05000019       6.23838760E-16
  -9.00000000       9.21347489E-16
  -8.94999981       6.55329380E-16
  -8.89999962      -1.28982906E-15
  -8.85000038      -6.43951885E-15
  -8.80000019      -1.56947955E-14
  -8.75000000      -2.69936661E-14
  -8.69999981      -3.19329151E-14
  -8.64999962      -1.31692752E-14
  -8.60000038       5.34957278E-14
  -8.55000019       1.87111299E-13
  -8.50000000       3.76113366E-13
  -8.44999981       5.42990728E-13
  -8.39999962       5.15813358E-13
  -8.35000038       3.87052112E-14
  -8.30000019      -1.13895742E-12
  -8.25000000      -3.06921502E-12
  -8.19999981      -5.33162273E-12
  -8.14999962      -6.78527720E-12
  -8.10000038      -5.54451667E-12
  -8.05000019       5.79684738E-13
  -8.00000000       1.30061725E-11
  -7.94999981       3.07629720E-11
  -7.90000010       4.88212526E-11
  -7.84999990       5.73423982E-11
  -7.80000019       4.30468647E-11
  -7.75000000      -6.35362553E-12
  -7.69999981      -9.47321180E-11
  -7.65000010      -2.08921005E-10
  -7.59999990      -3.12624260E-10
  -7.55000019      -3.47864015E-10
  -7.50000000      -2.48383591E-10
  -7.44999981       3.38393098E-11
  -7.40000010       4.93732666E-10
  -7.34999990       1.04177722E-09
  -7.30000019       1.49334967E-09
  -7.25000000       1.59585312E-09
  -7.19999981       1.10226483E-09
  -7.15000010      -1.17422433E-10
  -7.09999990      -1.95743510E-09
  -7.05000019      -3.99957933E-09
  -7.00000000      -5.53344925E-09
  -6.94999981      -5.71094994E-09
  -6.90000010      -3.83047238E-09
  -6.84999990       3.12814191E-10
  -6.80000019       6.13028295E-09
  -6.75000000       1.21436559E-08
  -6.69999981       1.62104072E-08
  -6.65000010       1.61035132E-08
  -6.59999990       1.03421041E-08
  -6.55000019      -9.73117475E-10
  -6.50000000      -1.56556119E-08
  -6.44999981      -2.95754585E-08
  -6.40000010      -3.76045826E-08
  -6.34999990      -3.52437830E-08
  -6.30000019      -2.04955040E-08
  -6.25000000       4.68595296E-09
  -6.19999981       3.40614363E-08
  -6.15000010       5.83340096E-08
  -6.09999990       6.78739340E-08
  -6.05000019       5.62604718E-08
  -6.00000000       2.34526922E-08
  -5.94999981      -2.27527170E-08
  -5.90000010      -6.79644145E-08
  -5.84999990      -9.52840509E-08
  -5.80000019      -9.12757301E-08
  -5.75000000      -5.18790237E-08
  -5.69999981       1.40845664E-08
  -5.65000010       8.57116547E-08
  -5.59999990       1.35706188E-07
  -5.55000019       1.39708845E-07
  -5.50000000       8.63175487E-08
  -5.44999981      -1.59971361E-08
  -5.40000010      -1.38353471E-07
  -5.34999990      -2.38631145E-07
  -5.30000019      -2.74870189E-07
  -5.25000000      -2.20715975E-07
  -5.19999981      -7.72893571E-08
  -5.15000010       1.23527073E-07
  -5.09999990       3.26658210E-07
  -5.05000019       4.70498833E-07
  -5.00000000       5.07083996E-07
  -4.94999981       4.18236908E-07
  -4.90000010       2.21192593E-07
  -4.84999990      -3.88425256E-08
  -4.80000019      -3.06203418E-07
  -4.75000000      -5.34574326E-07
  -4.69999981      -6.99624081E-07
  -4.65000010      -7.97729513E-07
  -4.59999990      -8.30677607E-07
  -4.55000019      -7.84228348E-07
  -4.50000000      -6.14067005E-07
  -4.44999981      -2.52490764E-07
  -4.40000010       3.58272132E-07
  -4.34999990       1.21323444E-06
  -4.30000019       2.19318167E-06
  -4.25000000       3.04336800E-06
  -4.19999981       3.40772249E-06
  -4.15000010       2.92717004E-06
  -4.09999990       1.38430880E-06
  -4.05000019      -1.15031014E-06
  -4.00000000      -4.23103347E-06
  -3.95000005      -7.06475657E-06
  -3.90000010      -8.67936433E-06
  -3.84999990      -8.21046069E-06
  -3.79999995      -5.23156677E-06
  -3.75000000      -1.68916063E-08
  -3.70000005       6.37603762E-06
  -3.65000010       1.22758565E-05
  -3.59999990       1.58142739E-05
  -3.54999995       1.54951213E-05
  -3.50000000       1.07472042E-05
  -3.45000005       2.26761153E-06
  -3.40000010      -7.99725422E-06
  -3.34999990      -1.72835553E-05
  -3.29999995      -2.27697219E-05
  -3.25000000      -2.24538235E-05
  -3.20000005      -1.58707971E-05
  -3.15000010      -4.39305222E-06
  -3.09999990       9.02853299E-06
  -3.04999995       2.06508175E-05
  -3.00000000       2.70381133E-05
  -2.95000005       2.61382756E-05
  -2.90000010       1.79813014E-05
  -2.84999990       4.75089701E-06
  -2.79999995      -9.82329857E-06
  -2.75000000      -2.15790951E-05
  -2.70000005      -2.71904682E-05
  -2.65000010      -2.51794227E-05
  -2.59999990      -1.63382811E-05
  -2.54999995      -3.42667136E-06
  -2.50000000       9.74563773E-06
  -2.45000005       1.95301782E-05
  -2.40000010       2.35315929E-05
  -2.34999990       2.12209616E-05
  -2.29999995       1.38955702E-05
  -2.25000000       4.05216042E-06
  -2.20000005      -5.55133283E-06
  -2.15000010      -1.27763742E-05
  -2.09999990      -1.66113950E-05
  -2.04999995      -1.71674419E-05
  -2.00000000      -1.52465218E-05
  -1.95000005      -1.17427335E-05
  -1.89999998      -7.18855063E-06
  -1.85000002      -1.66574659E-06
  -1.79999995       4.89590275E-06
  -1.75000000       1.22188658E-05
  -1.70000005       1.92874813E-05
  -1.64999998       2.43497198E-05
  -1.60000002       2.54163879E-05
  -1.54999995       2.11084916E-05
  -1.50000000       1.14880640E-05
  -1.45000005      -1.55795180E-06
  -1.39999998      -1.46746752E-05
  -1.35000002      -2.41279704E-05
  -1.29999995      -2.72647685E-05
  -1.25000000      -2.37432596E-05
  -1.20000005      -1.59282627E-05
  -1.14999998      -8.12210510E-06
  -1.10000002      -4.77398271E-06
  -1.04999995      -8.29982855E-06
  -1.00000000      -1.74351590E-05
 -0.949999988      -2.69748743E-05
 -0.899999976      -2.92992881E-05
 -0.850000024      -1.73795597E-05
 -0.800000012       1.17395521E-05
 -0.750000000       5.43707793E-05
 -0.699999988       9.97938478E-05
 -0.649999976       1.32641144E-04
 -0.600000024       1.37643365E-04
 -0.550000012       1.05316722E-04
 -0.500000000       3.65842789E-05
 -0.449999988      -5.55687766E-05
 -0.400000006      -1.48456180E-04
 -0.349999994      -2.15767694E-04
 -0.300000012      -2.35668427E-04
 -0.250000000      -1.98310227E-04
 -0.200000003      -1.10095651E-04
 -0.150000006       7.05710772E-06
 -0.100000001       1.21587313E-04
  -5.00000007E-02   2.01664327E-04
   5.55111512E-16   2.25111886E-04
   5.00000007E-02   1.86593417E-04
  0.100000001       9.95626615E-05
  0.150000006      -7.81779454E-06
  0.200000003      -1.01559992E-04
  0.250000000      -1.52656910E-04
  0.300000012      -1.46253456E-04
  0.349999994      -8.61659719E-05
  0.400000006       6.68748180E-06
  0.449999988       1.01323807E-04
  0.500000000       1.66763333E-04
  0.550000012       1.81755677E-04
  0.600000024       1.41030163E-04
  0.649999976       5.62325768E-05
  0.699999988      -4.84394404E-05
  0.750000000      -1.44158403E-04
  0.800000012      -2.06184690E-04
  0.850000024      -2.20614413E-04
  0.899999976      -1.87313126E-04
  0.949999988      -1.18620221E-04
   1.00000000      -3.47865935E-05
   1.04999995       4.20441174E-05
   1.10000002       9.33988194E-05
   1.14999998       1.08216074E-04
   1.20000005       8.42557347E-05
   1.25000000       2.74371832E-05
   1.29999995      -5.02291114E-05
   1.35000002      -1.33459558E-04
   1.39999998      -2.06850760E-04
   1.45000005      -2.58155575E-04
   1.50000000      -2.81423127E-04
   1.54999995      -2.79438973E-04
   1.60000002      -2.64556147E-04
   1.64999998      -2.56947533E-04
   1.70000005      -2.79799366E-04
   1.75000000      -3.52007686E-04
   1.79999995      -4.80217655E-04
   1.85000002      -6.53000781E-04
   1.89999998      -8.40022520E-04
   1.95000005      -9.97907016E-04
   2.00000000      -1.08233676E-03
   2.04999995      -1.06339611E-03
   2.09999990      -9.39265126E-04
   2.15000010      -7.42993783E-04
   2.20000005      -5.38663880E-04
   2.25000000      -4.06506122E-04
   2.29999995      -4.20451164E-04
   2.34999990      -6.24767155E-04
   2.40000010      -1.01756689E-03
   2.45000005      -1.54740619E-03
   2.50000000      -2.12524622E-03
   2.54999995      -2.64897710E-03
   2.59999990      -3.03323916E-03
   2.65000010      -3.23514245E-03
   2.70000005      -3.26750777E-03
   2.75000000      -3.19525693E-03
   2.79999995      -3.11616156E-03
   2.84999990      -3.13236006E-03
   2.90000010      -3.32199270E-03
   2.95000005      -3.71991377E-03
   3.00000000      -4.31292877E-03
   3.04999995      -5.04972087E-03
   3.09999990      -5.86060900E-03
   3.15000010      -6.67940173E-03
   3.20000005      -7.45984260E-03
   3.25000000      -8.18223041E-03
   3.29999995      -8.85032210E-03
   3.34999990      -9.48256161E-03
   3.40000010      -1.01034511E-02
   3.45000005      -1.07397279E-02
   3.50000000      -1.14226043E-02
   3.54999995      -1.21933827E-02
   3.59999990      -1.31070670E-02
   3.65000010      -1.42288357E-02
   3.70000005      -1.56212198E-02
   3.75000000      -1.73246935E-02
   3.79999995      -1.93386637E-02
   3.84999990      -2.16116849E-02
   3.90000010      -2.40476225E-02
   3.95000005      -2.65292078E-02
   4.00000000      -2.89534088E-02
   4.05000019      -3.12675200E-02
   4.09999990      -3.34930234E-02
   4.15000010      -3.57274227E-02
   4.19999981      -3.81214581E-02
   4.25000000      -4.08381522E-02
   4.30000019      -4.40071113E-02
   4.34999990      -4.76900302E-02
   4.40000010      -5.18698096E-02
   4.44999981      -5.64674251E-02
   4.50000000      -6.13804795E-02
   4.55000019      -6.65292367E-02
   4.59999990      -7.18929768E-02
   4.65000010      -7.75232464E-02
   4.69999981      -8.35290700E-02
   4.75000000      -9.00402963E-02
   4.80000019      -9.71633196E-02
   4.84999990     -0.104946665    
   4.90000010     -0.113369934    
   4.94999981     -0.122360609    
   5.00000000     -0.131832421    
   5.05000019     -0.141730651    
   5.09999990     -0.152067125    
   5.15000010     -0.162931710    
   5.19999981     -0.174476415    
   5.25000000     -0.186878413    
   5.30000019     -0.200295970    
   5.34999990     -0.214833662    
   5.40000010     -0.230528533    
   5.44999981     -0.247360677    
   5.50000000     -0.265282035    
   5.55000019     -0.284251332    
   5.59999990     -0.304262072    
   5.65000010     -0.325354159    
   5.69999981     -0.347608626    
   5.75000000     -0.371131420    
   5.80000019     -0.396035224    
   5.84999990     -0.422429204    
   5.90000010     -0.450418770    
   5.94999981     -0.480113178    
   6.00000000     -0.511632442    
   6.05000019     -0.545106471    
   6.09999990     -0.580661833    
   6.15000010     -0.618400812    
   6.19999981     -0.658381581    
   6.25000000     -0.700611472    
   6.30000019     -0.745060921    
   6.34999990     -0.791697919    
   6.40000010     -0.840533495    
   6.44999981     -0.891660631    
   6.50000000     -0.945271134    
   6.55000019      -1.00163925    
   6.59999990      -1.06107652    
   6.65000010      -1.12386966    
   6.69999981      -1.19022632    
   6.75000000      -1.26024616    
   6.80000019      -1.33393097    
   6.84999990      -1.41123211    
   6.90000010      -1.49211407    
   6.94999981      -1.57661378    
   7.00000000      -1.66487205    
   7.05000019      -1.75712478    
   7.09999990      -1.85365927    
   7.15000010      -1.95475531    
   7.19999981      -2.06063318    
   7.25000000      -2.17143273    
   7.30000019      -2.28722858    
   7.34999990      -2.40807676    
   7.40000010      -2.53406858    
   7.44999981      -2.66536689    
   7.50000000      -2.80221057    
   7.55000019      -2.94487810    
   7.59999990      -3.09363294    
   7.65000010      -3.24866986    
   7.69999981      -3.41008902    
   7.75000000      -3.57791591    
   7.80000019      -3.75215554    
   7.84999990      -3.93286610    
   7.90000010      -4.12021589    
   7.94999981      -4.31449890    
   8.00000000      -4.51609755    
   8.05000019      -4.72540379    
   8.10000038      -4.94273090    
   8.14999962      -5.16825199    
   8.19999981      -5.40199137    
   8.25000000      -5.64387560    
   8.30000019      -5.89383221    
   8.35000038      -6.15188694    
   8.39999962      -6.41822481    
   8.44999981      -6.69318867    
   8.50000000      -6.97720671    
   8.55000019      -7.27067900    
   8.60000038      -7.57387066    
   8.64999962      -7.88685322    
   8.69999981      -8.20952320    
   8.75000000      -8.54169846    
   8.80000019      -8.88325024    
   8.85000038      -9.23421860    
   8.89999962      -9.59486485    
   8.94999981      -9.96563053    
   9.00000000      -10.3470230    
   9.05000019      -10.7394552    
   9.10000038      -11.1431160    
   9.14999962      -11.5579205    
   9.19999981      -11.9835672    
   9.25000000      -12.4196730    
   9.30000019      -12.8659573    
   9.35000038      -13.3223791    
   9.39999962      -13.7891855    
   9.44999981      -14.2668533    
   9.50000000      -14.7559252    
   9.55000019      -15.2568254    
   9.60000038      -15.7697077    
   9.64999962      -16.2944107    
   9.69999981      -16.8305302    
   9.75000000      -17.3775883    
   9.80000019      -17.9352207    
   9.85000038      -18.5033321    
   9.89999962      -19.0821209    
   9.94999981      -19.6720066    
   10.0000000      -20.2734451    
   10.0500002      -20.8867340    
   10.1000004      -21.5118866    
   10.1499996      -22.1485882    
   10.1999998      -22.7963200    
   10.2500000      -23.4545155    
   10.3000002      -24.1227665    
   10.3500004      -24.8009396    
   10.3999996      -25.4891911    
   10.4499998      -26.1878586    
   10.5000000      -26.8972816    
   10.5500002      -27.6176319    
   10.6000004      -28.3488026    
   10.6499996      -29.0904160    
   10.6999998      -29.8419437    
   10.7500000      -30.6028709    
   10.8000002      -31.3728485    
   10.8500004      -32.1517715    
   10.8999996      -32.9397392    
   10.9499998      -33.7369347    
   11.0000000      -34.5434532    
   11.0500002      -35.3592110    
   11.1000004      -36.1838760    
   11.1499996      -37.0169525    
   11.1999998      -37.8579292    
   11.2500000      -38.7064018    
   11.3000002      -39.5621796    
   11.3500004      -40.4252701    
   11.3999996      -41.2957993    
   11.4499998      -42.1738281    
   11.5000000      -43.0592613    
   11.5500002      -43.9517746    
   11.6000004      -44.8508492    
   11.6499996      -45.7559395    
   11.6999998      -46.6665802    
   11.7500000      -47.5825348    
   11.8000002      -48.5037651    
   11.8500004      -49.4303627    
   11.8999996      -50.3623886    
   11.9499998      -51.2997131    
   12.0000000      -52.2419243    
   12.0500002      -53.1884079    
   12.1000004      -54.1384773    
   12.1499996      -55.0915680    
   12.1999998      -56.0474091    
   12.2500000      -57.0060577    
   12.3000002      -57.9677963    
   12.3500004      -58.9329262    
   12.3999996      -59.9015198    
   12.4499998      -60.8732681    
   12.5000000      -61.8474731    
   12.5500002      -62.8231850    
   12.6000004      -63.7994957    
   12.6499996      -64.7757950    
   12.6999998      -65.7519379    
   12.7500000      -66.7282333    
   12.8000002      -67.7051773    
   12.8500004      -68.6832047    
   12.8999996      -69.6623154    
   12.9499998      -70.6419601    
   13.0000000      -71.6210785    
   13.0500002      -72.5984039    
   13.1000004      -73.5727768    
   13.1499996      -74.5435562    
   13.1999998      -75.5107193    
   13.2500000      -76.4748001    
   13.3000002      -77.4365540    
   13.3500004      -78.3965302    
   13.3999996      -79.3546906    
   13.4499998      -80.3103027    
   13.5000000      -81.2619705    
   13.5500002      -82.2080383    
   13.6000004      -83.1470490    
   13.6499996      -84.0781174    
   13.6999998      -85.0011063    
   13.7500000      -85.9164734    
   13.8000002      -86.8249130    
   13.8500004      -87.7268906    
   13.8999996      -88.6222229    
   13.9499998      -89.5099716    
   14.0000000      -90.3885803    
   14.0500002      -91.2562561    
   14.1000004      -92.1114197    
   14.1499996      -92.9531097    
   14.1999998      -93.7810287    
   14.2500000      -94.5954056    
   14.3000002      -95.3965988    
   14.3500004      -96.1846161    
   14.3999996      -96.9587860    
   14.4499998      -97.7177124    
   14.5000000      -98.4594803    
   14.5500002      -99.1820679    
   14.6000004      -99.8837891    
   14.6499996      -100.563568    
   14.6999998      -101.220932    
   14.7500000      -101.855843    
   14.8000002      -102.468246    
   14.8500004      -103.057625    
   14.8999996      -103.622849    
   14.9499998      -104.162102    
   15.0000000      -104.673225    
   15.0500002      -105.154068    
   15.1000004      -105.602859    
   15.1499996      -106.018372    
   15.1999998      -106.399864    
   15.2500000      -106.746788    
   15.3000002      -107.058403    
   15.3500004      -107.333496    
   15.3999996      -107.570282    
   15.4499998      -107.766556    
   15.5000000      -107.919991    
   15.5500002      -108.028511    
   15.6000004      -108.090500    
   15.6499996      -108.104820    
   15.6999998      -108.070602    
   15.7500000      -107.986908    
   15.8000002      -107.852425    
   15.8500004      -107.665306    
   15.8999996      -107.423279    
   15.9499998      -107.123863    
   16.0000000      -106.764816    
   16.0499992      -106.344315    
   16.1000004      -105.861099    
   16.1499996      -105.314285    
   16.2000008      -104.703056    
   16.2500000      -104.026237    
   16.2999992      -103.282143    
   16.3500004      -102.468544    
   16.3999996      -101.582939    
   16.4500008      -100.622986    
   16.5000000      -99.5868835    
   16.5499992      -98.4735565    
   16.6000004      -97.2825699    
   16.6499996      -96.0137634    
   16.7000008      -94.6667786    
   16.7500000      -93.2407227    
   16.7999992      -91.7339630    
   16.8500004      -90.1443329    
   16.8999996      -88.4696121    
   16.9500008      -86.7080231    
   17.0000000      -84.8586578    
   17.0499992      -82.9215698    
   17.1000004      -80.8975296    
   17.1499996      -78.7875061    
   17.2000008      -76.5921173    
   17.2500000      -74.3112259    
   17.2999992      -71.9438629    
   17.3500004      -69.4886169    
   17.3999996      -66.9441757    
   17.4500008      -64.3099289    
   17.5000000      -61.5863838    
   17.5499992      -58.7751312    
   17.6000004      -55.8785095    
   17.6499996      -52.8989754    
   17.7000008      -49.8384666    
   17.7500000      -46.6980743    
   17.7999992      -43.4780502    
   17.8500004      -40.1782379    
   17.8999996      -36.7987480    
   17.9500008      -33.3405533    
   18.0000000      -29.8058453    
   18.0499992      -26.1979580    
   18.1000004      -22.5209007    
   18.1499996      -18.7787189    
   18.2000008      -14.9748755    
   18.2500000      -11.1119633    
   18.2999992      -7.19181252    
   18.3500004      -3.21595693    
   18.3999996      0.813725591    
   18.4500008       4.89447069    
   18.5000000       9.02238846    
   18.5499992       13.1926241    
   18.6000004       17.3998451    
   18.6499996       21.6388569    
   18.7000008       25.9050808    
   18.7500000       30.1947498    
   18.7999992       34.5046921    
   18.8500004       38.8318520    
   18.8999996       43.1727333    
   18.9500008       47.5229912    
   19.0000000       51.8773651    
   19.0499992       56.2299347    
   19.1000004       60.5745926    
   19.1499996       64.9055939    
   19.2000008       69.2178650    
   19.2500000       73.5070572    
   19.2999992       77.7692261    
   19.3500004       82.0003967    
   19.3999996       86.1961746    
   19.4500008       90.3514938    
   19.5000000       94.4607391    
   19.5499992       98.5180359    
   19.6000004       102.517769    
   19.6499996       106.454849    
   19.7000008       110.324890    
   19.7500000       114.123970    
   19.7999992       117.848305    
   19.8500004       121.493851    
   19.8999996       125.056038    
   19.9500008       128.529816    
   20.0000000       131.909988    
   20.0499992       135.191620    
   20.1000004       138.370499    
   20.1499996       141.443237    
   20.2000008       144.407242    
   20.2500000       147.260239    
   20.2999992       149.999878    
   20.3500004       152.623199    
   20.3999996       155.126755    
   20.4500008       157.506699    
   20.5000000       159.759308    
   20.5499992       161.881561    
   20.6000004       163.871368    
   20.6499996       165.727753    
   20.7000008       167.450409    
   20.7500000       169.039215    
   20.7999992       170.493683    
   20.8500004       171.812683    
   20.8999996       172.994461    
   20.9500008       174.037048    
   21.0000000       174.938873    
   21.0499992       175.699356    
   21.1000004       176.319061    
   21.1499996       176.799713    
   21.2000008       177.143616    
   21.2500000       177.352997    
   21.2999992       177.429520    
   21.3500004       177.373932    
   21.3999996       177.186340    
   21.4500008       176.866776    
   21.5000000       176.415710    
   21.5499992       175.834747    
   21.6000004       175.126816    
   21.6499996       174.295853    
   21.7000008       173.346283    
   21.7500000       172.282333    
   21.7999992       171.107468    
   21.8500004       169.824158    
   21.8999996       168.434250    
   21.9500008       166.939362    
   22.0000000       165.341690    
   22.0499992       163.644424    
   22.1000004       161.851883    
   22.1499996       159.969269    
   22.2000008       158.002075    
   22.2500000       155.955460    
   22.2999992       153.833740    
   22.3500004       151.640366    
   22.3999996       149.378082    
   22.4500008       147.049576    
   22.5000000       144.657913    
   22.5499992       142.207031    
   22.6000004       139.701736    
   22.6499996       137.147415    
   22.7000008       134.549561    
   22.7500000       131.913193    
   22.7999992       129.242661    
   22.8500004       126.541473    
   22.8999996       123.812622    
   22.9500008       121.059013    
   23.0000000       118.283829    
   23.0499992       115.490807    
   23.1000004       112.684189    
   23.1499996       109.868484    
   23.2000008       107.048088    
   23.2500000       104.226990    
   23.2999992       101.408585    
   23.3500004       98.5957565    
   23.3999996       95.7910767    
   23.4500008       92.9970932    
   23.5000000       90.2165680    
   23.5499992       87.4524612    
   23.6000004       84.7078934    
   23.6499996       81.9859085    
   23.7000008       79.2892914    
   23.7500000       76.6204605    
   23.7999992       73.9814987    
   23.8500004       71.3743057    
   23.8999996       68.8007507    
   23.9500008       66.2627716    
   24.0000000       63.7623558    
   24.0499992       61.3014259    
   24.1000004       58.8816376    
   24.1499996       56.5042801    
   24.2000008       54.1702385    
   24.2500000       51.8801689    
   24.2999992       49.6346893    
   24.3500004       47.4346352    
   24.3999996       45.2811279    
   24.4500008       43.1755524    
   24.5000000       41.1192780    
   24.5499992       39.1133537    
   24.6000004       37.1582603    
   24.6499996       35.2538185    
   24.7000008       33.3993492    
   24.7500000       31.5939751    
   24.7999992       29.8370514    
   24.8500004       28.1284370    
   24.8999996       26.4685745    
   24.9500008       24.8583012    
   25.0000000       23.2984562    
   25.0499992       21.7894325    
   25.1000004       20.3308792    
   25.1499996       18.9216309    
   25.2000008       17.5599747    
   25.2500000       16.2440872    
   25.2999992       14.9725208    
   25.3500004       13.7445478    
   25.3999996       12.5601902    
   25.4500008       11.4199572    
   25.5000000       10.3243656    
   25.5499992       9.27343845    
   25.6000004       8.26637077    
   25.6499996       7.30151224    
   25.7000008       6.37664843    
   25.7500000       5.48950481    
   25.7999992       4.63825798    
   25.8500004       3.82186508    
   25.8999996       3.04008746    
   25.9500008       2.29320645    
   26.0000000       1.58154333    
   26.0499992      0.904972792    
   26.1000004      0.262617469    
   26.1499996     -0.347162604    
   26.2000008     -0.926490426    
   26.2500000      -1.47751927    
   26.2999992      -2.00198340    
   26.3500004      -2.50092793    
   26.3999996      -2.97470927    
   26.4500008      -3.42325568    
   26.5000000      -3.84647703    
   26.5499992      -4.24465132    
   26.6000004      -4.61864805    
   26.6499996      -4.96990061    
   26.7000008      -5.30016279    
   26.7500000      -5.61114311    
   26.7999992      -5.90417624    
   26.8500004      -6.18004990    
   26.8999996      -6.43904829    
   26.9500008      -6.68117428    
   27.0000000      -6.90645695    
   27.0499992      -7.11521673    
   27.1000004      -7.30818844    
   27.1499996      -7.48646736    
   27.2000008      -7.65131569    
   27.2500000      -7.80392265    
   27.2999992      -7.94520664    
   27.3500004      -8.07575035    
   27.3999996      -8.19585609    
   27.4500008      -8.30570412    
   27.5000000      -8.40552044    
   27.5499992      -8.49568844    
   27.6000004      -8.57676888    
   27.6499996      -8.64941978    
   27.7000008      -8.71428490    
   27.7500000      -8.77189827    
   27.7999992      -8.82264996    
   27.8500004      -8.86683273    
   27.8999996      -8.90472698    
   27.9500008      -8.93668365    
   28.0000000      -8.96314812    
   28.0499992      -8.98462582    
   28.1000004      -9.00157738    
   28.1499996      -9.01433182    
   28.2000008      -9.02303314    
   28.2500000      -9.02768803    
   28.2999992      -9.02827168    
   28.3500004      -9.02487278    
   28.3999996      -9.01780415    
   28.4500008      -9.00760937    
   28.5000000      -8.99496841    
   28.5499992      -8.98051643    
   28.6000004      -8.96465492    
   28.6499996      -8.94743443    
   28.7000008      -8.92856598    
   28.7500000      -8.90757179    
   28.7999992      -8.88401890    
   28.8500004      -8.85774803    
   28.8999996      -8.82900906    
   28.9500008      -8.79843521    
   29.0000000      -8.76686192    
   29.0499992      -8.73506165    
   29.1000004      -8.70347881    
   29.1499996      -8.67209816    
   29.2000008      -8.64047337    
   29.2500000      -8.60793400    
   29.2999992      -8.57386589    
   29.3500004      -8.53798962    
   29.3999996      -8.50049782    
   29.4500008      -8.46201706    
   29.5000000      -8.42339420    
   29.5499992      -8.38540363    
   29.6000004      -8.34846592    
   29.6499996      -8.31251335    
   29.7000008      -8.27703381    
   29.7500000      -8.24127579    
   29.7999992      -8.20454979    
   29.8500004      -8.16649532    
   29.8999996      -8.12721729    
   29.9500008      -8.08724976    
   30.0000000      -8.04735279    
   30.0499992      -8.00824070    
   30.1000004      -7.97032499    
   30.1499996      -7.93357897    
   30.2000008      -7.89757586    
   30.2500000      -7.86166239    
   30.2999992      -7.82521629    
   30.3500004      -7.78787184    
   30.3999996      -7.74964762    
   30.4500008      -7.71092892    
   30.5000000      -7.67231274    
   30.5499992      -7.63439989    
   30.6000004      -7.59758568    
   30.6499996      -7.56195021    
   30.7000008      -7.52725554    
   30.7500000      -7.49305391    
   30.7999992      -7.45885277    
   30.8500004      -7.42427874    
   30.8999996      -7.38917732    
   30.9500008      -7.35363340    
   31.0000000      -7.31791115    
   31.0499992      -7.28234959    
   31.1000004      -7.24725866    
   31.1499996      -7.21284485    
   31.2000008      -7.17917776    
   31.2500000      -7.14620638    
   31.2999992      -7.11379528    
   31.3500004      -7.08176565    
   31.3999996      -7.04993248    
   31.4500008      -7.01813126    
   31.5000000      -6.98624229    
   31.5499992      -6.95421314    
   31.6000004      -6.92208338    
   31.6499996      -6.88999224    
   31.7000008      -6.85816336    
   31.7500000      -6.82686234    
   31.7999992      -6.79631901    
   31.8500004      -6.76664925    
   31.8999996      -6.73779535    
   31.9500008      -6.70951605    
   32.0000000      -6.68144608    
   32.0499992      -6.65320063    
   32.0999985      -6.62450790    
   32.1500015      -6.59531021    
   32.2000008      -6.56580400    
   32.2500000      -6.53638697    
   32.2999992      -6.50753164    
   32.3499985      -6.47962332    
   32.4000015      -6.45282030    
   32.4500008      -6.42699003    
   32.5000000      -6.40174198    
   32.5499992      -6.37655973    
   32.5999985      -6.35098362    
   32.6500015      -6.32477331    
   32.7000008      -6.29800081    
   32.7500000      -6.27103281    
   32.7999992      -6.24440193    