  -10.0000000       0.00000000    
  -9.94999981       0.00000000    
  -9.89999962       0.00000000    
  -9.85000038       0.00000000    
  -9.80000019       0.00000000    
  -9.75000000       0.00000000    
  -9.69999981       0.00000000    
  -9.64999962       0.00000000    
  -9.60000038       0.00000000    
  -9.55000019      -6.22681562E-22
  -9.50000000      -6.69273166E-21
  -9.44999981      -2.77860469E-20
  -9.39999962      -4.33739707E-21
  -9.35000038       6.08117078E-19
  -9.30000019       4.13693166E-18
  -9.25000000       1.72378782E-17
  -9.19999981       5.32048162E-17
  -9.14999962       1.27827727E-16
  -9.10000038       2.36291170E-16
  -9.05000019       2.98326433E-16
  -9.00000000       7.95162436E-17
  -8.94999981      -8.47515544E-16
  -8.89999962      -2.95600438E-15
  -8.85000038      -6.23830025E-15
  -8.80000019      -9.21666291E-15
  -8.75000000      -7.81616423E-15
  -8.69999981       4.85849586E-15
  -8.64999962       3.60804018E-14
  -8.60000038       8.66577250E-14
  -8.55000019       1.39759650E-13
  -8.50000000       1.49721110E-13
  -8.44999981       4.10460985E-14
  -8.39999962      -2.67796039E-13
  -8.35000038      -8.03969846E-13
  -8.30000019      -1.44736014E-12
  -8.25000000      -1.84004960E-12
  -8.19999981      -1.37071615E-12
  -8.14999962       6.70657865E-13
  -8.10000038       4.69613497E-12
  -8.05000019       1.02084773E-11
  -8.00000000       1.51780671E-11
  -7.94999981       1.58138259E-11
  -7.90000010       7.25215027E-12
  -7.84999990      -1.44288973E-11
  -7.80000019      -4.89380723E-11
  -7.75000000      -8.81399051E-11
  -7.69999981      -1.13920831E-10
  -7.65000010      -1.00022088E-10
  -7.59999990      -1.99551851E-11
  -7.55000019       1.38708989E-10
  -7.50000000       3.56700364E-10
  -7.44999981       5.69078507E-10
  -7.40000010       6.64911737E-10
  -7.34999990       5.10246401E-10
  -7.30000019      -1.57814083E-12
  -7.25000000      -8.79430195E-10
  -7.19999981      -1.96541250E-09
  -7.15000010      -2.90170155E-09
  -7.09999990      -3.17070326E-09
  -7.05000019      -2.23307461E-09
  -7.00000000       2.43673470E-10
  -6.94999981       4.11900380E-09
  -6.90000010       8.57420535E-09
  -6.84999990       1.20911974E-08
  -6.80000019       1.27197781E-08
  -6.75000000       8.66414229E-09
  -6.69999981      -9.02839858E-10
  -6.65000010      -1.50287978E-08
  -6.59999990      -3.05105381E-08
  -6.55000019      -4.21080770E-08
  -6.50000000      -4.36603216E-08
  -6.44999981      -3.00463725E-08
  -6.40000010       4.24279417E-10
  -6.34999990       4.39457573E-08
  -6.30000019       9.03950124E-08
  -6.25000000       1.24546901E-07
  -6.19999981       1.29631815E-07
  -6.15000010       9.27690635E-08
  -6.09999990       1.09465477E-08
  -6.05000019      -1.04435657E-07
  -6.00000000      -2.26569739E-07
  -5.94999981      -3.17299452E-07
  -5.90000010      -3.36403133E-07
  -5.84999990      -2.54473775E-07
  -5.80000019      -6.60348292E-08
  -5.75000000       2.01506381E-07
  -5.69999981       4.87252464E-07
  -5.65000010       7.07033394E-07
  -5.59999990       7.73940769E-07
  -5.55000019       6.25130042E-07
  -5.50000000       2.47806668E-07
  -5.44999981      -3.04091685E-07
  -5.40000010      -9.09962637E-07
  -5.34999990      -1.40316126E-06
  -5.30000019      -1.61038247E-06
  -5.25000000      -1.40186432E-06
  -5.19999981      -7.39583186E-07
  -5.15000010       2.91300978E-07
  -5.09999990       1.48034985E-06
  -5.05000019       2.52549376E-06
  -5.00000000       3.09969209E-06
  -4.94999981       2.93803305E-06
  -4.90000010       1.92472839E-06
  -4.84999990       1.55881580E-07
  -4.80000019      -2.04374714E-06
  -4.75000000      -4.16319517E-06
  -4.69999981      -5.60672470E-06
  -4.65000010      -5.83830479E-06
  -4.59999990      -4.53890425E-06
  -4.55000019      -1.73720537E-06
  -4.50000000       2.12639793E-06
  -4.44999981       6.23322330E-06
  -4.40000010       9.52844857E-06
  -4.34999990       1.09567854E-05
  -4.30000019       9.74805789E-06
  -4.25000000       5.68584301E-06
  -4.19999981      -7.18039757E-07
  -4.15000010      -8.21191134E-06
  -4.09999990      -1.49943426E-05
  -4.05000019      -1.90967403E-05
  -4.00000000      -1.88922641E-05
  -3.95000005      -1.36138478E-05
  -3.90000010      -3.73562375E-06
  -3.84999990       8.91970194E-06
  -3.79999995       2.14338797E-05
  -3.75000000       3.04047135E-05
  -3.70000005       3.28082497E-05
  -3.65000010       2.69083357E-05
  -3.59999990       1.29580758E-05
  -3.54999995      -6.54686983E-06
  -3.50000000      -2.72118068E-05
  -3.45000005      -4.36795162E-05
  -3.40000010      -5.09789206E-05
  -3.34999990      -4.59551702E-05
  -3.29999995      -2.83784157E-05
  -3.25000000      -1.36850917E-06
  -3.20000005       2.90713069E-05
  -3.15000010       5.53807768E-05
  -3.09999990       7.03411133E-05
  -3.04999995       6.90596062E-05
  -3.00000000       5.04827985E-05
  -2.95000005       1.79702038E-05
  -2.90000010      -2.13017738E-05
  -2.84999990      -5.80117958E-05
  -2.79999995      -8.30301360E-05
  -2.75000000      -8.97963619E-05
  -2.70000005      -7.60791954E-05
  -2.65000010      -4.46188023E-05
  -2.59999990      -2.46354602E-06
  -2.54999995       4.08141714E-05
  -2.50000000       7.55208384E-05
  -2.45000005       9.41957624E-05
  -2.40000010       9.32861149E-05
  -2.34999990       7.37375303E-05
  -2.29999995       4.04295606E-05
  -2.25000000       7.18653268E-07
  -2.20000005      -3.74235642E-05
  -2.15000010      -6.71378511E-05
  -2.09999990      -8.38562628E-05
  -2.04999995      -8.57575578E-05
  -2.00000000      -7.35802605E-05
  -1.95000005      -5.00498172E-05
  -1.89999998      -1.92134848E-05
  -1.85000002       1.41217715E-05
  -1.79999995       4.48231986E-05
  -1.75000000       6.78622600E-05
  -1.70000005       7.89100086E-05
  -1.64999998       7.51736807E-05
  -1.60000002       5.63534850E-05
  -1.54999995       2.53904400E-05
  -1.50000000      -1.14275317E-05
  -1.45000005      -4.53489592E-05
  -1.39999998      -6.70919835E-05
  -1.35000002      -6.94775372E-05
  -1.29999995      -5.00290298E-05
  -1.25000000      -1.26169916E-05
  -1.20000005       3.26444606E-05
  -1.14999998       7.15835631E-05
  -1.10000002       8.98969884E-05
  -1.04999995       7.77972964E-05
  -1.00000000       3.39358849E-05
 -0.949999988      -3.28278256E-05
 -0.899999976      -1.04722007E-04
 -0.850000024      -1.59431234E-04
 -0.800000012      -1.76525093E-04
 -0.750000000      -1.44131758E-04
 -0.699999988      -6.37544363E-05
 -0.649999976       4.84955272E-05
 -0.600000024       1.65004822E-04
 -0.550000012       2.53561593E-04
 -0.500000000       2.86288909E-04
 -0.449999988       2.48085184E-04
 -0.400000006       1.42027973E-04
 -0.349999994      -1.00429052E-05
 -0.300000012      -1.72212734E-04
 -0.250000000      -3.03378969E-04
 -0.200000003      -3.68016568E-04
 -0.150000006      -3.45895998E-04
 -0.100000001      -2.38055945E-04
  -5.00000007E-02  -6.73259347E-05
   5.55111512E-16   1.26838117E-04
   5.00000007E-02   2.97917635E-04
  0.100000001       4.03850572E-04
  0.150000006       4.17572475E-04
  0.200000003       3.33931326E-04
  0.250000000       1.71271982E-04
  0.300000012      -3.26766676E-05
  0.349999994      -2.29605183E-04
  0.400000006      -3.72024544E-04
  0.449999988      -4.24606056E-04
  0.500000000      -3.72850045E-04
  0.550000012      -2.27089040E-04
  0.600000024      -2.08650545E-05
  0.649999976       1.96052497E-04
  0.699999988       3.68562934E-04
  0.750000000       4.48702340E-04
  0.800000012       4.06914129E-04
  0.850000024       2.39507513E-04
  0.899999976      -2.95657192E-05
  0.949999988      -3.53264448E-04
   1.00000000      -6.71534042E-04
   1.04999995      -9.24732652E-04
   1.10000002      -1.06731674E-03
   1.14999998      -1.07849413E-03
   1.20000005      -9.67190601E-04
   1.25000000      -7.70031591E-04
   1.29999995      -5.42796974E-04
   1.35000002      -3.47485155E-04
   1.39999998      -2.38246110E-04
   1.45000005      -2.49681791E-04
   1.50000000      -3.90283065E-04
   1.54999995      -6.42300234E-04
   1.60000002      -9.67579137E-04
   1.64999998      -1.31737790E-03
   1.70000005      -1.64335896E-03
   1.75000000      -1.90702884E-03
   1.79999995      -2.08576838E-03
   1.85000002      -2.17487710E-03
   1.89999998      -2.18626903E-03
   1.95000005      -2.14516860E-03
   2.00000000      -2.08617025E-03
   2.04999995      -2.04946240E-03
   2.09999990      -2.07722443E-03
   2.15000010      -2.20961403E-03
   2.20000005      -2.47974088E-03
   2.25000000      -2.90763332E-03
   2.29999995      -3.49418563E-03
   2.34999990      -4.21701605E-03
   2.40000010      -5.03046438E-03
   2.45000005      -5.87137695E-03
   2.50000000      -6.67078840E-03
   2.54999995      -7.36964261E-03
   2.59999990      -7.93484971E-03
   2.65000010      -8.37113708E-03
   2.70000005      -8.72463174E-03
   2.75000000      -9.07609053E-03
   2.79999995      -9.52454004E-03
   2.84999990      -1.01650758E-02
   2.90000010      -1.10665616E-02
   2.95000005      -1.22554526E-02
   3.00000000      -1.37104494E-02
   3.04999995      -1.53697804E-02
   3.09999990      -1.71492994E-02
   3.15000010      -1.89664997E-02
   3.20000005      -2.07638443E-02
   3.25000000      -2.25250386E-02
   3.29999995      -2.42800321E-02
   3.34999990      -2.60977447E-02
   3.40000010      -2.80689858E-02
   3.45000005      -3.02846283E-02
   3.50000000      -3.28151286E-02
   3.54999995      -3.56967747E-02
   3.59999990      -3.89278978E-02
   3.65000010      -4.24753465E-02
   3.70000005      -4.62889560E-02
   3.75000000      -5.03196083E-02
   3.79999995      -5.45362346E-02
   3.84999990      -5.89374788E-02
   3.90000010      -6.35556281E-02
   3.95000005      -6.84523433E-02
   4.00000000      -7.37077668E-02
   4.05000019      -7.94060379E-02
   4.09999990      -8.56207609E-02
   4.15000010      -9.24038962E-02
   4.19999981      -9.97804254E-02
   4.25000000     -0.107750036    
   4.30000019     -0.116295025    
   4.34999990     -0.125392497    
   4.40000010     -0.135027811    
   4.44999981     -0.145205900    
   4.50000000     -0.155957788    
   4.55000019     -0.167340741    
   4.59999990     -0.179432258    
   4.65000010     -0.192320094    
   4.69999981     -0.206091031    
   4.75000000     -0.220822021    
   4.80000019     -0.236575916    
   4.84999990     -0.253402501    
   4.90000010     -0.271344006    
   4.94999981     -0.290441811    
   5.00000000     -0.310741782    
   5.05000019     -0.332295477    
   5.09999990     -0.355157256    
   5.15000010     -0.379378140    
   5.19999981     -0.405000478    
   5.25000000     -0.432056576    
   5.30000019     -0.460573733    
   5.34999990     -0.490585834    
   5.40000010     -0.522148490    
   5.44999981     -0.555352151    
   5.50000000     -0.590328693    
   5.55000019     -0.627245843    
   5.59999990     -0.666290224    
   5.65000010     -0.707642317    
   5.69999981     -0.751449347    
   5.75000000     -0.797805250    
   5.80000019     -0.846744359    
   5.84999990     -0.898251832    
   5.90000010     -0.952289224    
   5.94999981      -1.00882781    
   6.00000000      -1.06788146    
   6.05000019      -1.12952828    
   6.09999990      -1.19391525    
   6.15000010      -1.26124489    
   6.19999981      -1.33174837    
   6.25000000      -1.40565145    
   6.30000019      -1.48314655    
   6.34999990      -1.56437361    
   6.40000010      -1.64942026    
   6.44999981      -1.73833346    
   6.50000000      -1.83114302    
   6.55000019      -1.92788494    
   6.59999990      -2.02862096    
   6.65000010      -2.13344598    
   6.69999981      -2.24248528    
   6.75000000      -2.35588336    
   6.80000019      -2.47378731    
   6.84999990      -2.59633279    
   6.90000010      -2.72363710    
   6.94999981      -2.85579777    
   7.00000000      -2.99289942    
   7.05000019      -3.13502169    
   7.09999990      -3.28224969    
   7.15000010      -3.43468142    
   7.19999981      -3.59242773    
   7.25000000      -3.75561094    
   7.30000019      -3.92435694    
   7.34999990      -4.09878922    
   7.40000010      -4.27901649    
   7.44999981      -4.46512842    
   7.50000000      -4.65719032    
   7.55000019      -4.85524082    
   7.59999990      -5.05929899    
   7.65000010      -5.26936913    
   7.69999981      -5.48545170    
   7.75000000      -5.70755482    
   7.80000019      -5.93570137    
   7.84999990      -6.16993618    
   7.90000010      -6.41032457    
   7.94999981      -6.65694284    
   8.00000000      -6.90986776    
   8.05000019      -7.16916180    
   8.10000038      -7.43486261    
   8.14999962      -7.70697308    
   8.19999981      -7.98546457    
   8.25000000      -8.27027988    
   8.30000019      -8.56134987    
   8.35000038      -8.85859585    
   8.39999962      -9.16194439    
   8.44999981      -9.47132874    
   8.50000000      -9.78668404    
   8.55000019      -10.1079464    
   8.60000038      -10.4350462    
   8.64999962      -10.7678995    
   8.69999981      -11.1064148    
   8.75000000      -11.4504929    
   8.80000019      -11.8000317    
   8.85000038      -12.1549244    
   8.89999962      -12.5150642    
   8.94999981      -12.8803329    
   9.00000000      -13.2505980    
   9.05000019      -13.6257076    
   9.10000038      -14.0054836    
   9.14999962      -14.3897295    
   9.19999981      -14.7782393    
   9.25000000      -15.1708078    
   9.30000019      -15.5672379    
   9.35000038      -15.9673481    
   9.39999962      -16.3709717    
   9.44999981      -16.7779408    
   9.50000000      -17.1880798    
   9.55000019      -17.6011963    
   9.60000038      -18.0170746    
   9.64999962      -18.4354839    
   9.69999981      -18.8561668    
   9.75000000      -19.2788677    
   9.80000019      -19.7033348    
   9.85000038      -20.1293182    
   9.89999962      -20.5565796    
   9.94999981      -20.9848804    
   10.0000000      -21.4139862    
   10.0500002      -21.8436661    
   10.1000004      -22.2736893    
   10.1499996      -22.7038460    
   10.1999998      -23.1339359    
   10.2500000      -23.5637875    
   10.3000002      -23.9932346    
   10.3500004      -24.4221039    
   10.3999996      -24.8502083    
   10.4499998      -25.2773285    
   10.5000000      -25.7032032    
   10.5500002      -26.1275406    
   10.6000004      -26.5500336    
   10.6499996      -26.9703941    
   10.6999998      -27.3883743    
   10.7500000      -27.8037796    
   10.8000002      -28.2164822    
   10.8500004      -28.6263943    
   10.8999996      -29.0334568    
   10.9499998      -29.4376011    
   11.0000000      -29.8387432    
   11.0500002      -30.2367687    
   11.1000004      -30.6315384    
   11.1499996      -31.0229092    
   11.1999998      -31.4107533    
   11.2500000      -31.7949696    
   11.3000002      -32.1754875    
   11.3500004      -32.5522575    
   11.3999996      -32.9252281    
   11.4499998      -33.2943382    
   11.5000000      -33.6594963    
   11.5500002      -34.0205879    
   11.6000004      -34.3774986    
   11.6499996      -34.7301292    
   11.6999998      -35.0784340    
   11.7500000      -35.4224205    
   11.8000002      -35.7621880    
   11.8500004      -36.0978737    
   11.8999996      -36.4296494    
   11.9499998      -36.7576828    
   12.0000000      -37.0820999    
   12.0500002      -37.4029884    
   12.1000004      -37.7203789    
   12.1499996      -38.0342827    
   12.1999998      -38.3446808    
   12.2500000      -38.6515770    
   12.3000002      -38.9550095    
   12.3500004      -39.2550583    
   12.3999996      -39.5518341    
   12.4499998      -39.8454971    
   12.5000000      -40.1362190    
   12.5500002      -40.4241867    
   12.6000004      -40.7095642    
   12.6499996      -40.9925079    
   12.6999998      -41.2731781    
   12.7500000      -41.5516968    
   12.8000002      -41.8282013    
   12.8500004      -42.1028290    
   12.8999996      -42.3757248    
   12.9499998      -42.6470490    
   13.0000000      -42.9169846    
   13.0500002      -43.1857262    
   13.1000004      -43.4534760    
   13.1499996      -43.7204361    
   13.1999998      -43.9868011    
   13.2500000      -44.2527466    
   13.3000002      -44.5184364    
   13.3500004      -44.7840157    
   13.3999996      -45.0496216    
   13.4499998      -45.3153915    
   13.5000000      -45.5814667    
   13.5500002      -45.8480034    
   13.6000004      -46.1151390    
   13.6499996      -46.3830109    
   13.6999998      -46.6517487    
   13.7500000      -46.9214478    
   13.8000002      -47.1922035    
   13.8500004      -47.4640961    
   13.8999996      -47.7372322    
   13.9499998      -48.0117378    
   14.0000000      -48.2878036    
   14.0500002      -48.5656281    
   14.1000004      -48.8454361    
   14.1499996      -49.1274338    
   14.1999998      -49.4117813    
   14.2500000      -49.6985931    
   14.3000002      -49.9878960    
   14.3500004      -50.2796822    
   14.3999996      -50.5739059    
   14.4499998      -50.8705330    
   14.5000000      -51.1695480    
   14.5500002      -51.4709702    
   14.6000004      -51.7748566    
   14.6499996      -52.0812874    
   14.6999998      -52.3903313    
   14.7500000      -52.7020302    
   14.8000002      -53.0164146    
   14.8500004      -53.3334808    
   14.8999996      -53.6532288    
   14.9499998      -53.9756775    
   15.0000000      -54.3008461    
   15.0500002      -54.6287918    
   15.1000004      -54.9595490    
   15.1499996      -55.2931442    
   15.1999998      -55.6295586    
   15.2500000      -55.9687157    
   15.3000002      -56.3104973    
   15.3500004      -56.6547699    
   15.3999996      -57.0013885    
   15.4499998      -57.3502502    
   15.5000000      -57.7012825    
   15.5500002      -58.0544357    
   15.6000004      -58.4096909    
   15.6499996      -58.7670021    
   15.6999998      -59.1262970    
   15.7500000      -59.4874458    
   15.8000002      -59.8502922    
   15.8500004      -60.2146683    
   15.8999996      -60.5804176    
   15.9499998      -60.9474144    
   16.0000000      -61.3155708    
   16.0499992      -61.6848259    
   16.1000004      -62.0551033    
   16.1499996      -62.4263153    
   16.2000008      -62.7983170    
   16.2500000      -63.1709023    
   16.2999992      -63.5438461    
   16.3500004      -63.9169121    
   16.3999996      -64.2898483    
   16.4500008      -64.6624680    
   16.5000000      -65.0346146    
   16.5499992      -65.4061508    
   16.6000004      -65.7769775    
   16.6499996      -66.1469269    
   16.7000008      -66.5158234    
   16.7500000      -66.8834305    
   16.7999992      -67.2494965    
   16.8500004      -67.6137390    
   16.8999996      -67.9759140    
   16.9500008      -68.3357925    
   17.0000000      -68.6931381    
   17.0499992      -69.0477905    
   17.1000004      -69.3995285    
   17.1499996      -69.7481461    
   17.2000008      -70.0933990    
   17.2500000      -70.4350128    
   17.2999992      -70.7727280    
   17.3500004      -71.1062851    
   17.3999996      -71.4354324    
   17.4500008      -71.7599640    
   17.5000000      -72.0796890    
   17.5499992      -72.3944168    
   17.6000004      -72.7039261    
   17.6499996      -73.0079651    
   17.7000008      -73.3062439    
   17.7500000      -73.5984192    
   17.7999992      -73.8841858    
   17.8500004      -74.1632004    
   17.8999996      -74.4351883    
   17.9500008      -74.6998978    
   18.0000000      -74.9571075    
   18.0499992      -75.2066040    
   18.1000004      -75.4482193    
   18.1499996      -75.6817551    
   18.2000008      -75.9069977    
   18.2500000      -76.1237411    
   18.2999992      -76.3317642    
   18.3500004      -76.5308304    
   18.3999996      -76.7207108    
   18.4500008      -76.9011612    
   18.5000000      -77.0719147    
   18.5499992      -77.2327271    
   18.6000004      -77.3833694    
   18.6499996      -77.5235977    
   18.7000008      -77.6532593    
   18.7500000      -77.7721634    
   18.7999992      -77.8801956    
   18.8500004      -77.9772491    
   18.8999996      -78.0632095    
   18.9500008      -78.1379395    
   19.0000000      -78.2012787    
   19.0499992      -78.2530746    
   19.1000004      -78.2931519    
   19.1499996      -78.3213730    
   19.2000008      -78.3376694    
   19.2500000      -78.3419495    
   19.2999992      -78.3342133    
   19.3500004      -78.3144608    
   19.3999996      -78.2826691    
   19.4500008      -78.2387619    
   19.5000000      -78.1826859    
   19.5499992      -78.1143417    
   19.6000004      -78.0336609    
   19.6499996      -77.9406204    
   19.7000008      -77.8353119    
   19.7500000      -77.7178497    
   19.7999992      -77.5884247    
   19.8500004      -77.4472122    
   19.8999996      -77.2943344    
   19.9500008      -77.1298676    
   20.0000000      -76.9537811    
   20.0499992      -76.7660217    
   20.1000004      -76.5665512    
   20.1499996      -76.3554077    
   20.2000008      -76.1327438    
   20.2500000      -75.8988266    
   20.2999992      -75.6540298    
   20.3500004      -75.3987427    
   20.3999996      -75.1333313    
   20.4500008      -74.8580704    
   20.5000000      -74.5731201    
   20.5499992      -74.2785873    
   20.6000004      -73.9745560    
   20.6499996      -73.6611710    
   20.7000008      -73.3386383    
   20.7500000      -73.0072937    
   20.7999992      -72.6675415    
   20.8500004      -72.3197937    
   20.8999996      -71.9644623    
   20.9500008      -71.6018524    
   21.0000000      -71.2322006    
   21.0499992      -70.8556976    
   21.1000004      -70.4725342    
   21.1499996      -70.0829391    
   21.2000008      -69.6872635    
   21.2500000      -69.2859650    
   21.2999992      -68.8795624    
   21.3500004      -68.4685898    
   21.3999996      -68.0535202    
   21.4500008      -67.6347198    
   21.5000000      -67.2124557    
   21.5499992      -66.7869110    
   21.6000004      -66.3582687    
   21.6499996      -65.9267120    
   21.7000008      -65.4925690    
   21.7500000      -65.0562363    
   21.7999992      -64.6181946    
   21.8500004      -64.1789474    
   21.8999996      -63.7389641    
   21.9500008      -63.2986488    
   22.0000000      -62.8583145    
   22.0499992      -62.4182014    
   22.1000004      -61.9785042    
   22.1499996      -61.5394440    
   22.2000008      -61.1012726    
   22.2500000      -60.6643066    
   22.2999992      -60.2288971    
   22.3500004      -59.7954063    
   22.3999996      -59.3641853    
   22.4500008      -58.9355431    
   22.5000000      -58.5097198    
   22.5499992      -58.0869217    
   22.6000004      -57.6673317    
   22.6499996      -57.2511215    
   22.7000008      -56.8385010    
   22.7500000      -56.4297066    
   22.7999992      -56.0250015    
   22.8500004      -55.6246567    
   22.8999996      -55.2289467    
   22.9500008      -54.8381081    
   23.0000000      -54.4523315    
   23.0499992      -54.0717430    
   23.1000004      -53.6964531    
   23.1499996      -53.3264923    
   23.2000008      -52.9618874    
   23.2500000      -52.6026421    
   23.2999992      -52.2487869    
   23.3500004      -51.9003716    
   23.3999996      -51.5575027    
   23.4500008      -51.2203255    
   23.5000000      -50.8890266    
   23.5499992      -50.5638084    
   23.6000004      -50.2448463    
   23.6499996      -49.9322662    
   23.7000008      -49.6261177    
   23.7500000      -49.3263702    
   23.7999992      -49.0329399    
   23.8500004      -48.7457008    
   23.8999996      -48.4645462    
   23.9500008      -48.1894035    
   24.0000000      -47.9202728    
   24.0499992      -47.6571770    
   24.1000004      -47.4001579    
   24.1499996      -47.1492157    
   24.2000008      -46.9043045    
   24.2500000      -46.6653137    
   24.2999992      -46.4320831    
   24.3500004      -46.2044601    
   24.3999996      -45.9823570    
   24.4500008      -45.7657547    
   24.5000000      -45.5547333    
   24.5499992      -45.3494110    
   24.6000004      -45.1499062    
   24.6499996      -44.9562416    
   24.7000008      -44.7683105    
   24.7500000      -44.5858803    
   24.7999992      -44.4086151    
   24.8500004      -44.2361450    
   24.8999996      -44.0681686    
   24.9500008      -43.9044952    
   25.0000000      -43.7450867    
   25.0499992      -43.5900307    
   25.1000004      -43.4394684    
   25.1499996      -43.2935143    
   25.2000008      -43.1521988    
   25.2500000      -43.0154266    
   25.2999992      -42.8829803    
   25.3500004      -42.7545738    
   25.3999996      -42.6299324    
   25.4500008      -42.5088501    
   25.5000000      -42.3912201    
   25.5499992      -42.2770386    
   25.6000004      -42.1663399    
   25.6499996      -42.0591469    
   25.7000008      -41.9554024    
   25.7500000      -41.8549500    
   25.7999992      -41.7575607    
   25.8500004      -41.6629791    
   25.8999996      -41.5709763    
   25.9500008      -41.4814224    
   26.0000000      -41.3943062    
   26.0499992      -41.3097000    
   26.1000004      -41.2277145    
   26.1499996      -41.1484489    
   26.2000008      -41.0718956    
   26.2500000      -40.9979362    
   26.2999992      -40.9263420    
   26.3500004      -40.8568382    
   26.3999996      -40.7891426    
   26.4500008      -40.7230530    
   26.5000000      -40.6584663    
   26.5499992      -40.5953941    
   26.6000004      -40.5339127    
   26.6499996      -40.4741249    
   26.7000008      -40.4160881    
   26.7500000      -40.3597984    
   26.7999992      -40.3051758    
   26.8500004      -40.2520714    
   26.8999996      -40.2003250    
   26.9500008      -40.1497917    
   27.0000000      -40.1003647    
   27.0499992      -40.0520134    
   27.1000004      -40.0047493    
   27.1499996      -39.9586029    
   27.2000008      -39.9136086    
   27.2500000      -39.8697472    
   27.2999992      -39.8269615    
   27.3500004      -39.7851562    
   27.3999996      -39.7441978    
   27.4500008      -39.7039757    
   27.5000000      -39.6643982    
   27.5499992      -39.6254272    
   27.6000004      -39.5870781    
   27.6499996      -39.5493965    
   27.7000008      -39.5124550    
   27.7500000      -39.4763107    
   27.7999992      -39.4409790    
   27.8500004      -39.4064407    
   27.8999996      -39.3726082    
   27.9500008      -39.3393631    
   28.0000000      -39.3065720    
   28.0499992      -39.2741089    
   28.1000004      -39.2419128    
   28.1499996      -39.2099762    
   28.2000008      -39.1783638    
   28.2500000      -39.1471748    
   28.2999992      -39.1165390    
   28.3500004      -39.0865364    
   28.3999996      -39.0571938    
   28.4500008      -39.0284576    
   28.5000000      -39.0002098    
   28.5499992      -38.9722939    
   28.6000004      -38.9445610    
   28.6499996      -38.9169121    
   28.7000008      -38.8893318    
   28.7500000      -38.8618736    
   28.7999992      -38.8346443    
   28.8500004      -38.8077583    
   28.8999996      -38.7813034    
   28.9500008      -38.7552795    
   29.0000000      -38.7296181    
   29.0499992      -38.7041893    
   29.1000004      -38.6788521    
   29.1499996      -38.6534920    
   29.2000008      -38.6280975    
   29.2500000      -38.6027222    
   29.2999992      -38.5775070    
   29.3500004      -38.5526276    
   29.3999996      -38.5282364    
   29.4500008      -38.5044098    
   29.5000000      -38.4811211    
   29.5499992      -38.4582596    
   29.6000004      -38.4356346    
   29.6499996      -38.4130592    
   29.7000008      -38.3903618    
   29.7500000      -38.3674736    
   29.7999992      -38.3444023    
   29.8500004      -38.3212395    
   29.8999996      -38.2981148    
   29.9500008      -38.2751579    
   30.0000000      -38.2524605    
   30.0499992      -38.2300453    
   30.1000004      -38.2078934    
   30.1499996      -38.1859474    
   30.2000008      -38.1641464    
   30.2500000      -38.1424561    
   30.2999992      -38.1208763    
   30.3500004      -38.0994377    
   30.3999996      -38.0781898    
   30.4500008      -38.0571709    
   30.5000000      -38.0363808    
   30.5499992      -38.0157700    
   30.6000004      -37.9952393    
   30.6499996      -37.9746857    
   30.7000008      -37.9540215    
   30.7500000      -37.9332161    
   30.7999992      -37.9123039    
   30.8500004      -37.8913956    
   30.8999996      -37.8706322    
   30.9500008      -37.8501587    
   31.0000000      -37.8300667    
   31.0499992      -37.8103714    
   31.1000004      -37.7909966    
   31.1499996      -37.7717705    
   31.2000008      -37.7525063    
   31.2500000      -37.7330322    
   31.2999992      -37.7132568    
   31.3500004      -37.6931915    
   31.3999996      -37.6729469    
   31.4500008      -37.6527138    
   31.5000000      -37.6327019    
   31.5499992      -37.6130638    
   31.6000004      -37.5938606    
   31.6499996      -37.5750542    
   31.7000008      -37.5565109    
   31.7500000      -37.5380592    
   31.7999992      -37.5195503    
   31.8500004      -37.5008888    
   31.8999996      -37.4820747    
   31.9500008      -37.4631920    
   32.0000000      -37.4443512    
   32.0499992      -37.4256744    
   32.0999985      -37.4072037    
   32.1500015      -37.3889198    
   32.2000008      -37.3707199    
   32.2500000      -37.3524666    
   32.2999992      -37.3340454    
   32.3499985      -37.3154068    
   32.4000015      -37.2965851    
   32.4500008      -37.2776909    
   32.5000000      -37.2588844    
   32.5499992      -37.2403183    
   32.5999985      -37.2220840    
   32.6500015      -37.2041855    
   32.7000008      -37.1865501    
   32.7500000      -37.1690521    
   32.7999992      -37.1515541    