  -10.0000000       0.00000000    
  -9.94999981       0.00000000    
  -9.89999962       0.00000000    
  -9.85000038       0.00000000    
  -9.80000019       0.00000000    
  -9.75000000       0.00000000    
  -9.69999981       0.00000000    
  -9.64999962       0.00000000    
  -9.60000038       0.00000000    
  -9.55000019       0.00000000    
  -9.50000000       0.00000000    
  -9.44999981      -7.93465323E-37
  -9.39999962      -7.89353927E-36
  -9.35000038      -8.23706257E-35
  -9.30000019      -9.75903492E-34
  -9.25000000      -8.24471313E-33
  -9.19999981      -4.75090971E-32
  -9.14999962      -1.93954240E-31
  -9.10000038      -5.62567334E-31
  -9.05000019      -1.04867271E-30
  -9.00000000      -4.77135179E-31
  -8.94999981       4.65304675E-30
  -8.89999962       1.93759025E-29
  -8.85000038       4.12301277E-29
  -8.80000019       3.75664763E-29
  -8.75000000      -7.60164007E-29
  -8.69999981      -3.87405094E-28
  -8.64999962      -7.38538619E-28
  -8.60000038      -1.97008490E-28
  -8.55000019       3.42298418E-27
  -8.50000000       1.27442975E-26
  -8.44999981       2.64771579E-26
  -8.39999962       2.99363007E-26
  -8.35000038      -1.59482592E-26
  -8.30000019      -1.71635795E-25
  -8.25000000      -4.72190937E-25
  -8.19999981      -8.07233377E-25
  -8.14999962      -7.43791408E-25
  -8.10000038       5.73909571E-25
  -8.05000019       4.14490318E-24
  -8.00000000       1.00588372E-23
  -7.94999981       1.55263225E-23
  -7.90000010       1.27331609E-23
  -7.84999990      -1.11922402E-23
  -7.80000019      -6.83000884E-23
  -7.75000000      -1.54545222E-22
  -7.69999981      -2.26314652E-22
  -7.65000010      -1.80698095E-22
  -7.59999990       1.33891859E-22
  -7.55000019       8.40769720E-22
  -7.50000000       1.86846832E-21
  -7.44999981       2.72466973E-21
  -7.40000010       2.33877422E-21
  -7.34999990      -7.86705207E-22
  -7.30000019      -7.83298035E-21
  -7.25000000      -1.81983095E-20
  -7.19999981      -2.76290732E-20
  -7.15000010      -2.70052983E-20
  -7.09999990      -3.57987411E-21
  -7.05000019       5.33707077E-20
  -7.00000000       1.41730638E-19
  -6.94999981       2.32935741E-19
  -6.90000010       2.62667869E-19
  -6.84999990       1.37424840E-19
  -6.80000019      -2.30770208E-19
  -6.75000000      -8.56635325E-19
  -6.69999981      -1.59414113E-18
  -6.65000010      -2.06919809E-18
  -6.59999990      -1.69741577E-18
  -6.55000019       1.43234983E-19
  -6.50000000       3.75140718E-18
  -6.44999981       8.61006509E-18
  -6.40000010       1.29532935E-17
  -6.34999990       1.37110340E-17
  -6.30000019       7.18994157E-18
  -6.25000000      -9.29738932E-18
  -6.19999981      -3.50330379E-17
  -6.15000010      -6.34950191E-17
  -6.09999990      -8.13301184E-17
  -6.05000019      -7.03339697E-17
  -6.00000000      -1.36055230E-17
  -5.94999981       9.44194045E-17
  -5.90000010       2.36686522E-16
  -5.84999990       3.66141665E-16
  -5.80000019       4.08838954E-16
  -5.75000000       2.83000272E-16
  -5.69999981      -6.52706847E-17
  -5.65000010      -6.17082137E-16
  -5.59999990      -1.24351128E-15
  -5.55000019      -1.69934842E-15
  -5.50000000      -1.66959310E-15
  -5.44999981      -8.76976885E-16
  -5.40000010       7.66616433E-16
  -5.34999990       3.01312277E-15
  -5.30000019       5.20836705E-15
  -5.25000000       6.37370397E-15
  -5.19999981       5.47991142E-15
  -5.15000010       1.88276599E-15
  -5.09999990      -4.20288304E-15
  -5.05000019      -1.13929201E-14
  -5.00000000      -1.72100103E-14
  -4.94999981      -1.86901343E-14
  -4.90000010      -1.34786371E-14
  -4.84999990      -1.12225830E-15
  -4.80000019       1.59635082E-14
  -4.75000000       3.24498661E-14
  -4.69999981       4.13905665E-14
  -4.65000010       3.68065496E-14
  -4.59999990       1.68495961E-14
  -4.55000019      -1.37701553E-14
  -4.50000000      -4.36318428E-14
  -4.44999981      -5.78155145E-14
  -4.40000010      -4.43520783E-14
  -4.34999990      -2.05819138E-15
  -4.30000019       5.37082721E-14
  -4.25000000       9.14583147E-14
  -4.19999981       7.30720280E-14
  -4.15000010      -2.79169879E-14
  -4.09999990      -2.04250462E-13
  -4.05000019      -3.98616632E-13
  -4.00000000      -5.04639950E-13
  -3.95000005      -3.94104454E-13
  -3.90000010       2.90511294E-14
  -3.84999990       7.60266091E-13
  -3.79999995       1.63703903E-12
  -3.75000000       2.32612519E-12
  -3.70000005       2.38451663E-12
  -3.65000010       1.40385121E-12
  -3.59999990      -7.85483928E-13
  -3.54999995      -3.91262066E-12
  -3.50000000      -7.15730600E-12
  -3.45000005      -9.22568098E-12
  -3.40000010      -8.66458381E-12
  -3.34999990      -4.39019827E-12
  -3.29999995       3.69456722E-12
  -3.25000000       1.42111444E-11
  -3.20000005       2.42008323E-11
  -3.15000010       2.96095058E-11
  -3.09999990       2.64100755E-11
  -3.04999995       1.21735963E-11
  -3.00000000      -1.23534273E-11
  -2.95000005      -4.22806998E-11
  -2.90000010      -6.88220175E-11
  -2.84999990      -8.11161555E-11
  -2.79999995      -6.94968180E-11
  -2.75000000      -2.94854002E-11
  -2.70000005       3.47488080E-11
  -2.65000010       1.08942244E-10
  -2.59999990       1.70518905E-10
  -2.54999995       1.93997790E-10
  -2.50000000       1.59193284E-10
  -2.45000005       6.00712813E-11
  -2.40000010      -8.87799487E-11
  -2.34999990      -2.51146215E-10
  -2.29999995      -3.75636133E-10
  -2.25000000      -4.09410422E-10
  -2.20000005      -3.16306648E-10
  -2.15000010      -9.40577061E-11
  -2.09999990       2.15831575E-10
  -2.04999995       5.31066191E-10
  -2.00000000       7.46727291E-10
  -1.95000005       7.66066488E-10
  -1.89999998       5.36153288E-10
  -1.85000002       7.68814040E-11
  -1.79999995      -5.08631415E-10
  -1.75000000      -1.05045184E-09
  -1.70000005      -1.35559142E-09
  -1.64999998      -1.26996025E-09
  -1.60000002      -7.40673634E-10
  -1.54999995       1.43378975E-10
  -1.50000000       1.15202392E-09
  -1.45000005       1.96427652E-09
  -1.39999998       2.26174990E-09
  -1.35000002       1.84096838E-09
  -1.29999995       7.08534953E-10
  -1.25000000      -8.78496720E-10
  -1.20000005      -2.45298870E-09
  -1.14999998      -3.46116935E-09
  -1.10000002      -3.44204332E-09
  -1.04999995      -2.20979435E-09
  -1.00000000       2.58144738E-11
 -0.949999988       2.65699773E-09
 -0.899999976       4.81816853E-09
 -0.850000024       5.64691005E-09
 -0.800000012       4.59556082E-09
 -0.750000000       1.69073611E-09
 -0.699999988      -2.36373787E-09
 -0.649999976      -6.30920383E-09
 -0.600000024      -8.68058958E-09
 -0.550000012      -8.29959035E-09
 -0.500000000      -4.76241402E-09
 -0.449999988       1.25638355E-09
 -0.400000006       8.03156208E-09
 -0.349999994       1.32033877E-08
 -0.300000012       1.45100367E-08
 -0.250000000       1.06348184E-08
 -0.200000003       1.88482185E-09
 -0.150000006      -9.57868718E-09
 -0.100000001      -2.01325836E-08
  -5.00000007E-02  -2.56928274E-08
   5.55111512E-16  -2.30890613E-08
   5.00000007E-02  -1.13976011E-08
  0.100000001       7.25032701E-09
  0.150000006       2.77777090E-08
  0.200000003       4.33339125E-08
  0.250000000       4.73296708E-08
  0.300000012       3.57929935E-08
  0.349999994       9.28748278E-09
  0.400000006      -2.63581974E-08
  0.449999988      -6.09907929E-08
  0.500000000      -8.27375075E-08
  0.550000012      -8.16964558E-08
  0.600000024      -5.36553735E-08
  0.649999976      -2.58033306E-09
  0.699999988       5.91900573E-08
  0.750000000       1.13519633E-07
  0.800000012       1.41440623E-07
  0.850000024       1.29262574E-07
  0.899999976       7.39816031E-08
  0.949999988      -1.39259821E-08
   1.00000000      -1.11684173E-07
   1.04999995      -1.89628238E-07
   1.10000002      -2.19740599E-07
   1.14999998      -1.84998115E-07
   1.20000005      -8.65906955E-08
   1.25000000       5.36766187E-08
   1.29999995       1.97308552E-07
   1.35000002       2.99033189E-07
   1.39999998       3.20358424E-07
   1.45000005       2.42900086E-07
   1.50000000       7.71375994E-08
   1.54999995      -1.36869261E-07
   1.60000002      -3.38138960E-07
   1.64999998      -4.61289204E-07
   1.70000005      -4.56671444E-07
   1.75000000      -3.08153318E-07
   1.79999995      -4.25747757E-08
   1.85000002       2.73179324E-07
   1.89999998       5.48090043E-07
   1.95000005       6.92430888E-07
   2.00000000       6.45803766E-07
   2.04999995       3.99254276E-07
   2.09999990       3.84724030E-09
   2.15000010      -4.38468334E-07
   2.20000005      -8.00734597E-07
   2.25000000      -9.67246820E-07
   2.29999995      -8.69934752E-07
   2.34999990      -5.13541522E-07
   2.40000010       1.92874037E-08
   2.45000005       5.86414501E-07
   2.50000000       1.02446063E-06
   2.54999995       1.19669323E-06
   2.59999990       1.03645868E-06
   2.65000010       5.72307783E-07
   2.70000005      -7.43936468E-08
   2.75000000      -7.20632556E-07
   2.79999995      -1.17400464E-06
   2.84999990      -1.29116518E-06
   2.90000010      -1.02458785E-06
   2.95000005      -4.42223381E-07
   3.00000000       2.87773872E-07
   3.04999995       9.44504563E-07
   3.09999990       1.32080550E-06
   3.15000010       1.28874001E-06
   3.20000005       8.43233067E-07
   3.25000000       1.08819954E-07
   3.29999995      -6.94475773E-07
   3.34999990      -1.31713250E-06
   3.40000010      -1.55818259E-06
   3.45000005      -1.33059382E-06
   3.50000000      -6.92178446E-07
   3.54999995       1.69476436E-07
   3.59999990       9.94874199E-07
   3.65000010       1.53565861E-06
   3.70000005       1.63593506E-06
   3.75000000       1.28424290E-06
   3.79999995       6.17245405E-07
   3.84999990      -1.28072742E-07
   3.90000010      -6.99070597E-07
   3.95000005      -9.20436889E-07
   4.00000000      -7.62100228E-07
   4.05000019      -3.55303087E-07
   4.09999990       5.31778284E-08
   4.15000010       1.96842663E-07
   4.19999981      -9.61739488E-08
   4.25000000      -8.11978509E-07
   4.30000019      -1.72110344E-06
   4.34999990      -2.43017575E-06
   4.40000010      -2.50789344E-06
   4.44999981      -1.64989910E-06
   4.50000000       1.72121418E-07
   4.55000019       2.63424272E-06
   4.59999990       5.09679239E-06
   4.65000010       6.75971569E-06
   4.69999981       6.90259230E-06
   4.75000000       5.14088561E-06
   4.80000019       1.61435366E-06
   4.84999990      -2.96582994E-06
   4.90000010      -7.44809449E-06
   4.94999981      -1.05328108E-05
   5.00000000      -1.11540403E-05
   5.05000019      -8.84026576E-06
   5.09999990      -3.93624305E-06
   5.15000010       2.40203258E-06
   5.19999981       8.46556304E-06
   5.25000000       1.24527360E-05
   5.30000019       1.30109220E-05
   5.34999990       9.69907705E-06
   5.40000010       3.21824996E-06
   5.44999981      -4.68684811E-06
   5.50000000      -1.16594811E-05
   5.55000019      -1.53965193E-05
   5.59999990      -1.43659836E-05
   5.65000010      -8.36005802E-06
   5.69999981       1.30313606E-06
   5.75000000       1.20253771E-05
   5.80000019       2.05895030E-05
   5.84999990       2.40732406E-05
   5.90000010       2.07611047E-05
   5.94999981       1.07779797E-05
   6.00000000      -3.77113452E-06
   6.05000019      -1.92389471E-05
   6.09999990      -3.13673409E-05
   6.15000010      -3.64732623E-05
   6.19999981      -3.25555447E-05
   6.25000000      -1.99889619E-05
   6.30000019      -1.57237582E-06
   6.34999990       1.81243195E-05
   6.40000010       3.39639810E-05
   6.44999981       4.16728908E-05
   6.50000000       3.90884561E-05
   6.55000019       2.68468120E-05
   6.59999990       8.28120938E-06
   6.65000010      -1.14726145E-05
   6.69999981      -2.69301672E-05
   6.75000000      -3.38584396E-05
   6.80000019      -3.05480680E-05
   6.84999990      -1.83622324E-05
   6.90000010      -1.37061102E-06
   6.94999981       1.48522595E-05
   7.00000000       2.49260702E-05
   7.05000019       2.53568487E-05
   7.09999990       1.56993556E-05
   7.15000010      -1.19107199E-06
   7.19999981      -1.99322185E-05
   7.25000000      -3.42163366E-05
   7.30000019      -3.87757609E-05
   7.34999990      -3.11158983E-05
   7.40000010      -1.24643711E-05
   7.44999981       1.23960626E-05
   7.50000000       3.64115222E-05
   7.55000019       5.23118943E-05
   7.59999990       5.48358039E-05
   7.65000010       4.24453283E-05
   7.69999981       1.79779217E-05
   7.75000000      -1.20122331E-05
   7.80000019      -3.90768473E-05
   7.84999990      -5.53479076E-05
   7.90000010      -5.59295804E-05
   7.94999981      -4.04697894E-05
   8.00000000      -1.33983658E-05
   8.05000019       1.72887576E-05
   8.10000038       4.23749407E-05
   8.14999962       5.42122398E-05
   8.19999981       4.91076535E-05
   8.25000000       2.85543592E-05
   8.30000019      -1.11085978E-06
   8.35000038      -3.05679096E-05
   8.39999962      -5.03608426E-05
   8.44999981      -5.38762069E-05
   8.50000000      -3.95267016E-05
   8.55000019      -1.14317609E-05
   8.60000038       2.16662756E-05
   8.64999962       4.89679151E-05
   8.69999981       6.09075178E-05
   8.75000000       5.21605107E-05
   8.80000019       2.34144391E-05
   8.85000038      -1.86898524E-05
   8.89999962      -6.34818789E-05
   8.94999981      -9.94964939E-05
   9.00000000      -1.18032956E-04
   9.05000019      -1.15916504E-04
   9.10000038      -9.65584841E-05
   9.14999962      -6.89258959E-05
   9.19999981      -4.46896920E-05
   9.25000000      -3.44183609E-05
   9.30000019      -4.40251970E-05
   9.35000038      -7.26439757E-05
   9.39999962      -1.12692236E-04
   9.44999981      -1.52201377E-04
   9.50000000      -1.78754402E-04
   9.55000019      -1.83812313E-04
   9.60000038      -1.66015481E-04
   9.64999962      -1.32302564E-04
   9.69999981      -9.63335624E-05
   9.75000000      -7.45524158E-05
   9.80000019      -8.10138808E-05
   9.85000038      -1.22574158E-04
   9.89999962      -1.96033609E-04
   9.94999981      -2.88298877E-04
   10.0000000      -3.79736943E-04
   10.0500002      -4.49887972E-04
   10.1000004      -4.83899494E-04
   10.1499996      -4.77706839E-04
   10.1999998      -4.40248114E-04
   10.2500000      -3.91818117E-04
   10.3000002      -3.58809455E-04
   10.3500004      -3.66223365E-04
   10.3999996      -4.30103741E-04
   10.4499998      -5.52198966E-04
   10.5000000      -7.18605006E-04
   10.5500002      -9.03027772E-04
   10.6000004      -1.07393553E-03
   10.6499996      -1.20365992E-03
   10.6999998      -1.27682323E-03
   10.7500000      -1.29555305E-03
   10.8000002      -1.27979822E-03
   10.8500004      -1.26245210E-03
   10.8999996      -1.28053012E-03
   10.9499998      -1.36486162E-03
   11.0000000      -1.53128442E-03
   11.0500002      -1.77597161E-03
   11.1000004      -2.07637507E-03
   11.1499996      -2.39763642E-03
   11.1999998      -2.70270579E-03
   11.2500000      -2.96325935E-03
   11.3000002      -3.16822482E-03
   11.3500004      -3.32737574E-03
   11.3999996      -3.46888346E-03
   11.4499998      -3.63150518E-03
   11.5000000      -3.85369034E-03
   11.5500002      -4.16283682E-03
   11.6000004      -4.56791418E-03
   11.6499996      -5.05766971E-03
   11.6999998      -5.60497027E-03
   11.7500000      -6.17595017E-03
   11.8000002      -6.74116472E-03
   11.8500004      -7.28529599E-03
   11.8999996      -7.81236822E-03
   11.9499998      -8.34480859E-03
   12.0000000      -8.91657360E-03
   12.0500002      -9.56246816E-03
   12.1000004      -1.03069972E-02
   12.1499996      -1.11563941E-02
   12.1999998      -1.20964972E-02
   12.2500000      -1.30974408E-02
   12.3000002      -1.41239390E-02
   12.3500004      -1.51481368E-02
   12.3999996      -1.61610302E-02
   12.4499998      -1.71787161E-02
   12.5000000      -1.82411596E-02
   12.5500002      -1.94033924E-02
   12.6000004      -2.07213964E-02
   12.6499996      -2.22366787E-02
   12.6999998      -2.39641704E-02
   12.7500000      -2.58873124E-02
   12.8000002      -2.79621463E-02
   12.8500004      -3.01296860E-02
   12.8999996      -3.23332995E-02
   12.9499998      -3.45361605E-02
   13.0000000      -3.67337093E-02
   13.0500002      -3.89572866E-02
   13.1000004      -4.12676893E-02
   13.1499996      -4.37401608E-02
   13.1999998      -4.64451052E-02
   13.2500000      -4.94299829E-02
   13.3000002      -5.27077168E-02
   13.3500004      -5.62550426E-02
   13.3999996      -6.00213371E-02
   13.4499998      -6.39454871E-02
   13.5000000      -6.79757670E-02
   13.5500002      -7.20869526E-02
   13.6000004      -7.62895644E-02
   13.6499996      -8.06285813E-02
   13.6999998      -8.51719007E-02
   13.7500000      -8.99923593E-02
   13.8000002      -9.51483846E-02
   13.8500004     -0.100669578    
   13.8999996     -0.106551170    
   13.9499998     -0.112759352    
   14.0000000     -0.119245499    
   14.0500002     -0.125964969    
   14.1000004     -0.132894412    
   14.1499996     -0.140042245    
   14.1999998     -0.147448838    
   14.2500000     -0.155176118    
   14.3000002     -0.163289830    
   14.3500004     -0.171839893    
   14.3999996     -0.180845022    
   14.4499998     -0.190286770    
   14.5000000     -0.200114906    
   14.5500002     -0.210263208    
   14.6000004     -0.220671162    
   14.6499996     -0.231304854    
   14.6999998     -0.242171243    
   14.7500000     -0.253320962    
   14.8000002     -0.264838338    
   14.8500004     -0.276821733    
   14.8999996     -0.289358765    
   14.9499998     -0.302504063    
   15.0000000     -0.316265464    
   15.0500002     -0.330603004    
   15.1000004     -0.345440477    
   15.1499996     -0.360687047    
   15.1999998     -0.376262218    
   15.2500000     -0.392117530    
   15.3000002     -0.408249021    
   15.3500004     -0.424697191    
   15.3999996     -0.441534311    
   15.4499998     -0.458843708    
   15.5000000     -0.476696372    
   15.5500002     -0.495131850    
   15.6000004     -0.514148712    
   15.6499996     -0.533706725    
   15.6999998     -0.553739965    
   15.7500000     -0.574176073    
   15.8000002     -0.594956160    
   15.8500004     -0.616048694    
   15.8999996     -0.637454450    
   15.9499998     -0.659200370    
   16.0000000     -0.681324959    
   16.0499992     -0.703860581    
   16.1000004     -0.726818144    
   16.1499996     -0.750179529    
   16.2000008     -0.773899972    
   16.2500000     -0.797920048    
   16.2999992     -0.822183132    
   16.3500004     -0.846652210    
   16.3999996     -0.871320844    
   16.4500008     -0.896212995    
   16.5000000     -0.921372414    
   16.5499992     -0.946843088    
   16.6000004     -0.972647667    
   16.6499996     -0.998770118    
   16.7000008      -1.02514935    
   16.7500000      -1.05168581    
   16.7999992      -1.07826078    
   16.8500004      -1.10476208    
   16.8999996      -1.13110960    
   16.9500008      -1.15727305    
   17.0000000      -1.18327451    
   17.0499992      -1.20917678    
   17.1000004      -1.23505855    
   17.1499996      -1.26098502    
   17.2000008      -1.28698039    
   17.2500000      -1.31301308    
   17.2999992      -1.33899546    
   17.3500004      -1.36480069    
   17.3999996      -1.39028871    
   17.4500008      -1.41533661    
   17.5000000      -1.43986249    
   17.5499992      -1.46383715    
   17.6000004      -1.48728001    
   17.6499996      -1.51024139    
   17.7000008      -1.53277731    
   17.7500000      -1.55492473    
   17.7999992      -1.57668257    
   17.8500004      -1.59800792    
   17.8999996      -1.61882365    
   17.9500008      -1.63903666    
   18.0000000      -1.65855908    
   18.0499992      -1.67732596    
   18.1000004      -1.69530487    
   18.1499996      -1.71249259    
   18.2000008      -1.72890377    
   18.2500000      -1.74455357    
   18.2999992      -1.75944078    
   18.3500004      -1.77353847    
   18.3999996      -1.78679371    
   18.4500008      -1.79913795    
   18.5000000      -1.81050229    
   18.5499992      -1.82083607    
   18.6000004      -1.83011854    
   18.6499996      -1.83836281    
   18.7000008      -1.84560919    
   18.7500000      -1.85190976    
   18.7999992      -1.85730827    
   18.8500004      -1.86182165    
   18.8999996      -1.86542928    
   18.9500008      -1.86807108    
   19.0000000      -1.86965907    
   19.0499992      -1.87009692    
   19.1000004      -1.86930346    
   19.1499996      -1.86723459    
   19.2000008      -1.86389649    
   19.2500000      -1.85934615    
   19.2999992      -1.85367990    
   19.3500004      -1.84701109    
   19.3999996      -1.83944213    
   19.4500008      -1.83103943    
   19.5000000      -1.82181597    
   19.5499992      -1.81172788    
   19.6000004      -1.80068600    
   19.6499996      -1.78857946    
   19.7000008      -1.77530682    
   19.7500000      -1.76080394    
   19.7999992      -1.74506557    
   19.8500004      -1.72814989    
   19.8999996      -1.71016800    
   19.9500008      -1.69126010    
   20.0000000      -1.67156410    
   20.0499992      -1.65118682    
   20.1000004      -1.63018394    
   20.1499996      -1.60855472    
   20.2000008      -1.58625245    
   20.2500000      -1.56320691    
   20.2999992      -1.53935099    
   20.3500004      -1.51464570    
   20.3999996      -1.48909295    
   20.4500008      -1.46273685    
   20.5000000      -1.43565261    
   20.5499992      -1.40792644    
   20.6000004      -1.37963724    
   20.6499996      -1.35084152    
   20.7000008      -1.32156992    
   20.7500000      -1.29183269    
   20.7999992      -1.26163375    
   20.8500004      -1.23098350    
   20.8999996      -1.19990957    
   20.9500008      -1.16845918    
   21.0000000      -1.13669193    
   21.0499992      -1.10466814    
   21.1000004      -1.07243454    
   21.1499996      -1.04001546    
   21.2000008      -1.00741160    
   21.2500000     -0.974606812    
   21.2999992     -0.941580951    
   21.3500004     -0.908324361    
   21.3999996     -0.874849439    
   21.4500008     -0.841194093    
   21.5000000     -0.807417929    
   21.5499992     -0.773591340    
   21.6000004     -0.739782929    
   21.6499996     -0.706047833    
   21.7000008     -0.672421515    
   21.7500000     -0.638920128    
   21.7999992     -0.605545878    
   21.8500004     -0.572295189    
   21.8999996     -0.539166093    
   21.9500008     -0.506162524    
   22.0000000     -0.473294199    
   22.0499992     -0.440573901    
   22.1000004     -0.408013672    
   22.1499996     -0.375621885    
   22.2000008     -0.343404025    
   22.2500000     -0.311365634    
   22.2999992     -0.279516757    
   22.3500004     -0.247875720    
   22.3999996     -0.216469422    
   22.4500008     -0.185330689    
   22.5000000     -0.154492229    
   22.5499992     -0.123980016    
   22.6000004      -9.38080996E-02
   22.6499996      -6.39767051E-02
   22.7000008      -3.44745591E-02
   22.7500000      -5.28440718E-03
   22.7999992       2.36113202E-02
   22.8500004       5.22253849E-02
   22.8999996       8.05640593E-02
   22.9500008      0.108628966    
   23.0000000      0.136420399    
   23.0499992      0.163940996    
   23.1000004      0.191197157    
   23.1499996      0.218197495    
   23.2000008      0.244948179    
   23.2500000      0.271447480    
   23.2999992      0.297681630    
   23.3500004      0.323624700    
   23.3999996      0.349243730    
   23.4500008      0.374507040    
   23.5000000      0.399394780    
   23.5499992      0.423908144    
   23.6000004      0.448073328    
   23.6499996      0.471939027    
   23.7000008      0.495567858    
   23.7500000      0.519023180    
   23.7999992      0.542355418    
   23.8500004      0.565591156    
   23.8999996      0.588729262    
   23.9500008      0.611742973    
   24.0000000      0.634589434    
   24.0499992      0.657221437    
   24.1000004      0.679599345    
   24.1499996      0.701700032    
   24.2000008      0.723521292    
   24.2500000      0.745080531    
   24.2999992      0.766409457    
   24.3500004      0.787547708    
   24.3999996      0.808536828    
   24.4500008      0.829415858    
   24.5000000      0.850218952    
   24.5499992      0.870974481    
   24.6000004      0.891704440    
   24.6499996      0.912423074    
   24.7000008      0.933135092    
   24.7500000      0.953833461    
   24.7999992      0.974498272    
   24.8500004      0.995098889    
   24.8999996       1.01559913    
   24.9500008       1.03596473    
   25.0000000       1.05617344    
   25.0499992       1.07622278    
   25.1000004       1.09613431    
   25.1499996       1.11595154    
   25.2000008       1.13573313    
   25.2500000       1.15554059    
   25.2999992       1.17542636    
   25.3500004       1.19542277    
   25.3999996       1.21553791    
   25.4500008       1.23575711    
   25.5000000       1.25605166    
   25.5499992       1.27639019    
   25.6000004       1.29674959    
   25.6499996       1.31712198    
   25.7000008       1.33751464    
   25.7500000       1.35794508    
   25.7999992       1.37843120    
   25.8500004       1.39898300    
   25.8999996       1.41959822    
   25.9500008       1.44026434    
   26.0000000       1.46096647    
   26.0499992       1.48169851    
   26.1000004       1.50247192    
   26.1499996       1.52331877    
   26.2000008       1.54428780    
   26.2500000       1.56543159    
   26.2999992       1.58679175    
   26.3500004       1.60838616    
   26.3999996       1.63020289    
   26.4500008       1.65220511    
   26.5000000       1.67434454    
   26.5499992       1.69657815    
   26.6000004       1.71888626    
   26.6499996       1.74127865    
   26.7000008       1.76379192    
   26.7500000       1.78647590    
   26.7999992       1.80937529    
   26.8500004       1.83251226    
   26.8999996       1.85587835    
   26.9500008       1.87943995    
   27.0000000       1.90315223    
   27.0499992       1.92698121    
   27.1000004       1.95092142    
   27.1499996       1.97500253    
   27.2000008       1.99928439    
   27.2500000       2.02383709    
   27.2999992       2.04871750    
   27.3500004       2.07394648    
   27.3999996       2.09950161    
   27.4500008       2.12532377    
   27.5000000       2.15133905    
   27.5499992       2.17748642    
   27.6000004       2.20374060    
   27.6499996       2.23012090    
   27.7000008       2.25668263    
   27.7500000       2.28349304    
   27.7999992       2.31060171    
   27.8500004       2.33801556    
   27.8999996       2.36569262    
   27.9500008       2.39355373    
   28.0000000       2.42151093    
   28.0499992       2.44950318    
   28.1000004       2.47752213    
   28.1499996       2.50562000    
   28.2000008       2.53389382    
   28.2500000       2.56245232    
   28.2999992       2.59137440    
   28.3500004       2.62067723    
   28.3999996       2.65030527    
   28.4500008       2.68014193    
   28.5000000       2.71004224    
   28.5499992       2.73987436    
   28.6000004       2.76955295    
   28.6499996       2.79905200    
   28.7000008       2.82839632    
   28.7500000       2.85763240    
   28.7999992       2.88679338    
   28.8500004       2.91587567    
   28.8999996       2.94483018    
   28.9500008       2.97358060    
   29.0000000       3.00205231    
   29.0499992       3.03020215    
   29.1000004       3.05803394    
   29.1499996       3.08559036    
   29.2000008       3.11292267    
   29.2500000       3.14004779    
   29.2999992       3.16691184    
   29.3500004       3.19337559    
   29.3999996       3.21922898    
   29.4500008       3.24423599    
   29.5000000       3.26818895    
   29.5499992       3.29095888    
   29.6000004       3.31251669    
   29.6499996       3.33292198    
   29.7000008       3.35227680    
   29.7500000       3.37066483    
   29.7999992       3.38809562    
   29.8500004       3.40447640    
   29.8999996       3.41962099    
   29.9500008       3.43329096    
   30.0000000       3.44525456    
   30.0499992       3.45533848    
   30.1000004       3.46345258    
   30.1499996       3.46957994    
   30.2000008       3.47373366    
   30.2500000       3.47590232    
   30.2999992       3.47600222    
   30.3500004       3.47385740    
   30.3999996       3.46921945    
   30.4500008       3.46181583    
   30.5000000       3.45140958    
   30.5499992       3.43784618    
   30.6000004       3.42107058    
   30.6499996       3.40110517    
   30.7000008       3.37799859    
   30.7500000       3.35176396    
   30.7999992       3.32233167    
   30.8500004       3.28953242    
   30.8999996       3.25311804    
   30.9500008       3.21281195    
   31.0000000       3.16836262    
   31.0499992       3.11958694    
   31.1000004       3.06637859    
   31.1499996       3.00868583    
   31.2000008       2.94646597    
   31.2500000       2.87963963    
   31.2999992       2.80806351    
   31.3500004       2.73153710    
   31.3999996       2.64983749    
   31.4500008       2.56277323    
   31.5000000       2.47022820    
   31.5499992       2.37218094    
   31.6000004       2.26868606    
   31.6499996       2.15982461    
   31.7000008       2.04563928    
   31.7500000       1.92608440    
   31.7999992       1.80100477    
   31.8500004       1.67015851    
   31.8999996       1.53327262    
   31.9500008       1.39011312    
   32.0000000       1.24054134    
   32.0499992       1.08453810    
   32.0999985      0.922184765    
   32.1500015      0.753612638    
   32.2000008      0.578939795    
   32.2500000      0.398221850    
   32.2999992      0.211434960    
   32.3499985       1.84989031E-02
   32.4000015     -0.180673435    
   32.4500008     -0.386118680    
   32.5000000     -0.597786188    
   32.5499992     -0.815534770    
   32.5999985      -1.03916669    
   32.6500015      -1.26848698    
   32.7000008      -1.50336063    
   32.7500000      -1.74374604    
   32.7999992      -1.98968732    