  -10.0000000       0.00000000    
  -9.94999981       0.00000000    
  -9.89999962       0.00000000    
  -9.85000038       0.00000000    
  -9.80000019       0.00000000    
  -9.75000000       0.00000000    
  -9.69999981       0.00000000    
  -9.64999962       0.00000000    
  -9.60000038       0.00000000    
  -9.55000019       0.00000000    
  -9.50000000       0.00000000    
  -9.44999981       2.49852749E-38
  -9.39999962       1.17153942E-36
  -9.35000038       1.38203927E-35
  -9.30000019       9.87087172E-35
  -9.25000000       6.34462469E-34
  -9.19999981       4.30125138E-33
  -9.14999962       2.75144554E-32
  -9.10000038       1.48272249E-31
  -9.05000019       6.52503937E-31
  -9.00000000       2.35299062E-30
  -8.94999981       7.00878858E-30
  -8.89999962       1.72772602E-29
  -8.85000038       3.49024457E-29
  -8.80000019       5.60831642E-29
  -8.75000000       6.68315806E-29
  -8.69999981       5.03115795E-29
  -8.64999962       2.52568379E-29
  -8.60000038       1.11667549E-28
  -8.55000019       5.20214285E-28
  -8.50000000       1.16828490E-27
  -8.44999981       4.76046597E-28
  -8.39999962      -6.76267189E-27
  -8.35000038      -3.09743893E-26
  -8.30000019      -8.41784659E-26
  -8.25000000      -1.62868407E-25
  -8.19999981      -2.10137039E-25
  -8.14999962      -6.44155157E-26
  -8.10000038       5.60908848E-25
  -8.05000019       1.96814623E-24
  -8.00000000       4.10228142E-24
  -7.94999981       5.84763144E-24
  -7.90000010       4.20591131E-24
  -7.84999990      -5.89305602E-24
  -7.80000019      -2.97598818E-23
  -7.75000000      -6.75130134E-23
  -7.69999981      -1.04647328E-22
  -7.65000010      -1.01703230E-22
  -7.59999990       8.04092863E-24
  -7.55000019       2.98035866E-22
  -7.50000000       7.89819504E-22
  -7.44999981       1.35403388E-21
  -7.40000010       1.60198036E-21
  -7.34999990       8.49212778E-22
  -7.30000019      -1.72015318E-21
  -7.25000000      -6.55996918E-21
  -7.19999981      -1.29165836E-20
  -7.15000010      -1.78608166E-20
  -7.09999990      -1.57986634E-20
  -7.05000019       5.96554136E-22
  -7.00000000       3.70684254E-20
  -6.94999981       9.17835860E-20
  -6.90000010       1.47967192E-19
  -6.84999990       1.68842879E-19
  -6.80000019       1.00809587E-19
  -6.75000000      -1.08727941E-19
  -6.69999981      -4.75807058E-19
  -6.65000010      -9.32191915E-19
  -6.59999990      -1.28426831E-18
  -6.55000019      -1.21084125E-18
  -6.50000000      -3.37659365E-19
  -6.44999981       1.58648299E-18
  -6.40000010       4.42677823E-18
  -6.34999990       7.39210451E-18
  -6.30000019       8.90938950E-18
  -6.25000000       6.83832239E-18
  -6.19999981      -8.11592497E-19
  -6.15000010      -1.46526856E-17
  -6.09999990      -3.24490877E-17
  -6.05000019      -4.80189794E-17
  -6.00000000      -5.13924833E-17
  -5.94999981      -3.11006775E-17
  -5.90000010       2.10114794E-17
  -5.84999990       1.03095073E-16
  -5.80000019       1.96817184E-16
  -5.75000000       2.64546468E-16
  -5.69999981       2.54201867E-16
  -5.65000010       1.14645962E-16
  -5.59999990      -1.78799563E-16
  -5.55000019      -5.94405053E-16
  -5.50000000      -1.02121871E-15
  -5.44999981      -1.26895499E-15
  -5.40000010      -1.10516687E-15
  -5.34999990      -3.35725664E-16
  -5.30000019       1.08198729E-15
  -5.25000000       2.92541442E-15
  -5.19999981       4.64440278E-15
  -5.15000010       5.40879241E-15
  -5.09999990       4.30904634E-15
  -5.05000019       7.08791400E-16
  -5.00000000      -5.32021945E-15
  -4.94999981      -1.26253784E-14
  -4.90000010      -1.88595037E-14
  -4.84999990      -2.08167207E-14
  -4.80000019      -1.53159871E-14
  -4.75000000      -5.47006572E-16
  -4.69999981       2.24482078E-14
  -4.65000010       4.87099917E-14
  -4.59999990       6.93685696E-14
  -4.55000019       7.32617228E-14
  -4.50000000       5.02972975E-14
  -4.44999981      -3.95794695E-15
  -4.40000010      -8.37333607E-14
  -4.34999990      -1.70408677E-13
  -4.30000019      -2.33724959E-13
  -4.25000000      -2.38165282E-13
  -4.19999981      -1.54352293E-13
  -4.15000010       2.67518619E-14
  -4.09999990       2.81151648E-13
  -4.05000019       5.46241600E-13
  -4.00000000       7.27613770E-13
  -3.95000005       7.20963328E-13
  -3.90000010       4.47119501E-13
  -3.84999990      -1.07638453E-13
  -3.79999995      -8.59074801E-13
  -3.75000000      -1.61575224E-12
  -3.70000005      -2.10590594E-12
  -3.65000010      -2.04479185E-12
  -3.59999990      -1.23340758E-12
  -3.54999995       3.35729545E-13
  -3.50000000       2.40192870E-12
  -3.45000005       4.42783874E-12
  -3.40000010       5.68758322E-12
  -3.34999990       5.45506695E-12
  -3.29999995       3.26081263E-12
  -3.25000000      -8.50368170E-13
  -3.20000005      -6.15259883E-12
  -3.15000010      -1.12538659E-11
  -3.09999990      -1.43494687E-11
  -3.04999995      -1.37050536E-11
  -3.00000000      -8.27605692E-12
  -2.95000005       1.70803497E-12
  -2.90000010       1.44089471E-11
  -2.84999990       2.64892309E-11
  -2.79999995       3.37670621E-11
  -2.75000000       3.23590842E-11
  -2.70000005       2.00684868E-11
  -2.65000010      -2.38079044E-12
  -2.59999990      -3.07265116E-11
  -2.54999995      -5.75527612E-11
  -2.50000000      -7.38307124E-11
  -2.45000005      -7.14211121E-11
  -2.40000010      -4.59668241E-11
  -2.34999990       6.80141707E-13
  -2.29999995       5.94228070E-11
  -2.25000000       1.14975668E-10
  -2.20000005       1.49197529E-10
  -2.15000010       1.46176779E-10
  -2.09999990       9.78379669E-11
  -2.04999995       8.37050654E-12
  -2.00000000      -1.04234558E-10
  -1.95000005      -2.10704731E-10
  -1.89999998      -2.77168871E-10
  -1.85000002      -2.74775674E-10
  -1.79999995      -1.89798552E-10
  -1.75000000      -3.10913587E-11
  -1.70000005       1.68044176E-10
  -1.64999998       3.55324076E-10
  -1.60000002       4.72014483E-10
  -1.54999995       4.69936534E-10
  -1.50000000       3.28400779E-10
  -1.45000005       6.56754512E-11
  -1.39999998      -2.59674782E-10
  -1.35000002      -5.59863822E-10
  -1.29999995      -7.40095929E-10
  -1.25000000      -7.26840699E-10
  -1.20000005      -4.94254748E-10
  -1.14999998      -8.00430069E-11
  -1.10000002       4.16066431E-10
  -1.04999995       8.53657367E-10
  -1.00000000       1.08925613E-09
 -0.949999988       1.02094533E-09
 -0.899999976       6.26884100E-10
 -0.850000024      -1.55149955E-11
 -0.800000012      -7.38935524E-10
 -0.750000000      -1.32554789E-09
 -0.699999988      -1.56857383E-09
 -0.649999976      -1.33982525E-09
 -0.600000024      -6.42587872E-10
 -0.550000012       3.69288072E-10
 -0.500000000       1.41736611E-09
 -0.449999988       2.16828155E-09
 -0.400000006       2.33156272E-09
 -0.349999994       1.75879733E-09
 -0.300000012       5.12901499E-10
 -0.250000000      -1.11890297E-09
 -0.200000003      -2.68087708E-09
 -0.150000006      -3.66592645E-09
 -0.100000001      -3.66639696E-09
  -5.00000007E-02  -2.51629095E-09
   5.55111512E-16  -3.79456216E-10
   5.00000007E-02   2.25117902E-09
  0.100000001       4.65546224E-09
  0.150000006       6.07155215E-09
  0.200000003       5.91979044E-09
  0.250000000       4.00204048E-09
  0.300000012       6.13248063E-10
  0.349999994      -3.47920137E-09
  0.400000006      -7.19825932E-09
  0.449999988      -9.43070866E-09
  0.500000000      -9.34358191E-09
  0.550000012      -6.65579503E-09
  0.600000024      -1.78146897E-09
  0.649999976       4.20932267E-09
  0.699999988       9.81878756E-09
  0.750000000       1.34911939E-08
  0.800000012       1.40323912E-08
  0.850000024       1.09660681E-08
  0.899999976       4.72349848E-09
  0.949999988      -3.39670581E-09
   1.00000000      -1.15023777E-08
   1.04999995      -1.75546955E-08
   1.10000002      -1.98780494E-08
   1.14999998      -1.76016997E-08
   1.20000005      -1.09164571E-08
   1.25000000      -1.07604770E-09
   1.29999995       9.86137394E-09
   1.35000002       1.94893008E-08
   1.39999998       2.55946784E-08
   1.45000005       2.66546127E-08
   1.50000000       2.21727596E-08
   1.54999995       1.27845166E-08
   1.60000002       1.19649082E-10
   1.64999998      -1.35317988E-08
   1.70000005      -2.56642423E-08
   1.75000000      -3.40119222E-08
   1.79999995      -3.69271405E-08
   1.85000002      -3.36247972E-08
   1.89999998      -2.42747618E-08
   1.95000005      -9.95614435E-09
   2.00000000       7.49338724E-09
   2.04999995       2.56971919E-08
   2.09999990       4.20006145E-08
   2.15000010       5.37587184E-08
   2.20000005       5.86443996E-08
   2.25000000       5.49692132E-08
   2.29999995       4.19975983E-08
   2.34999990       2.02172590E-08
   2.40000010      -8.48814796E-09
   2.45000005      -4.08258067E-08
   2.50000000      -7.22949025E-08
   2.54999995      -9.76338654E-08
   2.59999990      -1.11507156E-07
   2.65000010      -1.09377005E-07
   2.70000005      -8.84545699E-08
   2.75000000      -4.85798495E-08
   2.79999995       7.15065118E-09
   2.84999990       7.21941760E-08
   2.90000010       1.36965454E-07
   2.95000005       1.89916960E-07
   3.00000000       2.19264308E-07
   3.04999995       2.15178517E-07
   3.09999990       1.72112635E-07
   3.15000010       9.08041713E-08
   3.20000005      -2.05596926E-08
   3.25000000      -1.46472047E-07
   3.29999995      -2.65805710E-07
   3.34999990      -3.55054397E-07
   3.40000010      -3.92716601E-07
   3.45000005      -3.64063681E-07
   3.50000000      -2.65284285E-07
   3.54999995      -1.05948295E-07
   3.59999990       9.10572950E-08
   3.65000010       2.92509384E-07
   3.70000005       4.60497574E-07
   3.75000000       5.59814794E-07
   3.79999995       5.65615039E-07
   3.84999990       4.69609347E-07
   3.90000010       2.83214916E-07
   3.95000005       3.66330681E-08
   4.00000000      -2.26289060E-07
   4.05000019      -4.56550026E-07
   4.09999990      -6.10090865E-07
   4.15000010      -6.57231624E-07
   4.19999981      -5.89199885E-07
   4.25000000      -4.20105323E-07
   4.30000019      -1.83775114E-07
   4.34999990       7.38557731E-08
   4.40000010       3.04954199E-07
   4.44999981       4.70050225E-07
   4.50000000       5.45778448E-07
   4.55000019       5.28224859E-07
   4.59999990       4.31261640E-07
   4.65000010       2.80711816E-07
   4.69999981       1.06413509E-07
   4.75000000      -6.51606769E-08
   4.80000019      -2.15363855E-07
   4.84999990      -3.33674194E-07
   4.90000010      -4.14232289E-07
   4.94999981      -4.50619382E-07
   5.00000000      -4.31851049E-07
   5.05000019      -3.42432998E-07
   5.09999990      -1.67978570E-07
   5.15000010       9.43838359E-08
   5.19999981       4.24076859E-07
   5.25000000       7.68673203E-07
   5.30000019       1.04433866E-06
   5.34999990       1.14867998E-06
   5.40000010       9.85963652E-07
   5.44999981       5.00114936E-07
   5.50000000      -2.93252185E-07
   5.55000019      -1.28672286E-06
   5.59999990      -2.28288877E-06
   5.65000010      -3.02361514E-06
   5.69999981      -3.24502685E-06
   5.75000000      -2.74816671E-06
   5.80000019      -1.46834566E-06
   5.84999990       4.76905541E-07
   5.90000010       2.77906634E-06
   5.94999981       4.97885867E-06
   6.00000000       6.55317581E-06
   6.05000019       7.03307069E-06
   6.09999990       6.12634676E-06
   6.15000010       3.81341738E-06
   6.19999981       3.88310895E-07
   6.25000000      -3.57203976E-06
   6.30000019      -7.31005775E-06
   6.34999990      -1.00425741E-05
   6.40000010      -1.11347244E-05
   6.44999981      -1.02514159E-05
   6.50000000      -7.44811678E-06
   6.55000019      -3.17593049E-06
   6.59999990       1.80366851E-06
   6.65000010       6.57663395E-06
   6.69999981       1.02703225E-05
   6.75000000       1.22376605E-05
   6.80000019       1.21876392E-05
   6.84999990       1.02317190E-05
   6.90000010       6.83712551E-06
   6.94999981       2.70164674E-06
   7.00000000      -1.41590260E-06
   7.05000019      -4.86511863E-06
   7.09999990      -7.23070980E-06
   7.15000010      -8.38702908E-06
   7.19999981      -8.47188312E-06
   7.25000000      -7.79374204E-06
   7.30000019      -6.70453528E-06
   7.34999990      -5.47865920E-06
   7.40000010      -4.23524853E-06
   7.44999981      -2.92627806E-06
   7.50000000      -1.39193787E-06
   7.55000019       5.36817254E-07
   7.59999990       2.92418395E-06
   7.65000010       5.64421225E-06
   7.69999981       8.35679202E-06
   7.75000000       1.05590834E-05
   7.80000019       1.17029522E-05
   7.84999990       1.13471715E-05
   7.90000010       9.29994258E-06
   7.94999981       5.70718294E-06
   8.00000000       1.05567563E-06
   8.05000019      -3.91590629E-06
   8.10000038      -8.37784228E-06
   8.14999962      -1.15994426E-05
   8.19999981      -1.31154657E-05
   8.25000000      -1.28214870E-05
   8.30000019      -1.09711400E-05
   8.35000038      -8.07737615E-06
   8.39999962      -4.74925491E-06
   8.44999981      -1.51588733E-06
   8.50000000       1.30671719E-06
   8.55000019       3.66381300E-06
   8.60000038       5.71066857E-06
   8.64999962       7.68052723E-06
   8.69999981       9.71817281E-06
   8.75000000       1.17387617E-05
   8.80000019       1.33653994E-05
   8.85000038       1.39749209E-05
   8.89999962       1.28466381E-05
   8.94999981       9.37471123E-06
   9.00000000       3.28213741E-06
   9.05000019      -5.22918299E-06
   9.10000038      -1.54411737E-05
   9.14999962      -2.62121957E-05
   9.19999981      -3.61801103E-05
   9.25000000      -4.40263248E-05
   9.30000019      -4.87369471E-05
   9.35000038      -4.98017580E-05
   9.39999962      -4.73122600E-05
   9.44999981      -4.19488497E-05
   9.50000000      -3.48735739E-05
   9.55000019      -2.75616858E-05
   9.60000038      -2.16078988E-05
   9.64999962      -1.85350200E-05
   9.69999981      -1.96193268E-05
   9.75000000      -2.57368192E-05
   9.80000019      -3.72330178E-05
   9.85000038      -5.38266249E-05
   9.89999962      -7.45697180E-05
   9.94999981      -9.78956086E-05
   10.0000000      -1.21782366E-04
   10.0500002      -1.44040314E-04
   10.1000004      -1.62698881E-04
   10.1499996      -1.76429690E-04
   10.1999998      -1.84913675E-04
   10.2500000      -1.89051527E-04
   10.3000002      -1.90937630E-04
   10.3500004      -1.93566317E-04
   10.3999996      -2.00304494E-04
   10.4499998      -2.14231201E-04
   10.5000000      -2.37489716E-04
   10.5500002      -2.70809687E-04
   10.6000004      -3.13327648E-04
   10.6499996      -3.62768624E-04
   10.6999998      -4.15966875E-04
   10.7500000      -4.69618972E-04
   10.8000002      -5.21100708E-04
   10.8500004      -5.69157302E-04
   10.8999996      -6.14298042E-04
   10.9499998      -6.58792036E-04
   11.0000000      -7.06251885E-04
   11.0500002      -7.60892464E-04
   11.1000004      -8.26628646E-04
   11.1499996      -9.06226109E-04
   11.1999998      -1.00071472E-03
   11.2500000      -1.10921811E-03
   11.3000002      -1.22926559E-03
   11.3500004      -1.35752652E-03
   11.3999996      -1.49080635E-03
   11.4499998      -1.62706047E-03
   11.5000000      -1.76616316E-03
   11.5500002      -1.91021804E-03
   11.6000004      -2.06330512E-03
   11.6499996      -2.23070802E-03
   11.6999998      -2.41781049E-03
   11.7500000      -2.62896018E-03
   11.8000002      -2.86661903E-03
   11.8500004      -3.13105760E-03
   11.8999996      -3.42069659E-03
   11.9499998      -3.73301725E-03
   12.0000000      -4.06577624E-03
   12.0500002      -4.41816170E-03
   12.1000004      -4.79152286E-03
   12.1499996      -5.18943928E-03
   12.1999998      -5.61707420E-03
   12.2500000      -6.08002162E-03
   12.3000002      -6.58300286E-03
   12.3500004      -7.12885149E-03
   12.3999996      -7.71815563E-03
   12.4499998      -8.34970642E-03
   12.5000000      -9.02167708E-03
   12.5500002      -9.73316655E-03
   12.6000004      -1.04856519E-02
   12.6499996      -1.12838671E-02
   12.6999998      -1.21357869E-02
   12.7500000      -1.30517008E-02
   12.8000002      -1.40425907E-02
   12.8500004      -1.51182981E-02
   12.8999996      -1.62859987E-02
   12.9499998      -1.75494216E-02
   13.0000000      -1.89090557E-02
   13.0500002      -2.03632452E-02
   13.1000004      -2.19098646E-02
   13.1499996      -2.35480927E-02
   13.1999998      -2.52798107E-02
   13.2500000      -2.71102600E-02
   13.3000002      -2.90479045E-02
   13.3500004      -3.11035402E-02
   13.3999996      -3.32890227E-02
   13.4499998      -3.56159359E-02
   13.5000000      -3.80945876E-02
   13.5500002      -4.07335460E-02
   13.6000004      -4.35397401E-02
   13.6499996      -4.65190262E-02
   13.6999998      -4.96771336E-02
   13.7500000      -5.30206449E-02
   13.8000002      -5.65578379E-02
   13.8500004      -6.02992140E-02
   13.8999996      -6.42576069E-02
   13.9499998      -6.84478283E-02
   14.0000000      -7.28858709E-02
   14.0500002      -7.75877759E-02
   14.1000004      -8.25684369E-02
   14.1499996      -8.78405273E-02
   14.1999998      -9.34138447E-02
   14.2500000      -9.92954075E-02
   14.3000002     -0.105490193    
   14.3500004     -0.112002678    
   14.3999996     -0.118838727    
   14.4499998     -0.126007453    
   14.5000000     -0.133522630    
   14.5500002     -0.141403273    
   14.6000004     -0.149673045    
   14.6499996     -0.158358783    
   14.6999998     -0.167488366    
   14.7500000     -0.177088425    
   14.8000002     -0.187182248    
   14.8500004     -0.197788611    
   14.8999996     -0.208921567    
   14.9499998     -0.220591038    
   15.0000000     -0.232804403    
   15.0500002     -0.245568439    
   15.1000004     -0.258891404    
   15.1499996     -0.272785008    
   15.1999998     -0.287265778    
   15.2500000     -0.302355915    
   15.3000002     -0.318082839    
   15.3500004     -0.334478110    
   15.3999996     -0.351574957    
   15.4499998     -0.369405508    
   15.5000000     -0.387997568    
   15.5500002     -0.407372385    
   15.6000004     -0.427543491    
   15.6499996     -0.448517919    
   15.6999998     -0.470299304    
   15.7500000     -0.492892444    
   15.8000002     -0.516308010    
   15.8500004     -0.540566206    
   15.8999996     -0.565698087    
   15.9499998     -0.591743290    
   16.0000000     -0.618745089    
   16.0499992     -0.646743119    
   16.1000004     -0.675767362    
   16.1499996     -0.705833554    
   16.2000008     -0.736943007    
   16.2500000     -0.769086480    
   16.2999992     -0.802251816    
   16.3500004     -0.836432457    
   16.3999996     -0.871634603    
   16.4500008     -0.907880664    
   16.5000000     -0.945207536    
   16.5499992     -0.983660579    
   16.6000004      -1.02328527    
   16.6499996      -1.06411755    
   16.7000008      -1.10617900    
   16.7500000      -1.14947474    
   16.7999992      -1.19399798    
   16.8500004      -1.23973596    
   16.8999996      -1.28667879    
   16.9500008      -1.33482516    
   17.0000000      -1.38418448    
   17.0499992      -1.43477511    
   17.1000004      -1.48661900    
   17.1499996      -1.53973544    
   17.2000008      -1.59413493    
   17.2500000      -1.64981794    
   17.2999992      -1.70677578    
   17.3500004      -1.76499534    
   17.3999996      -1.82446444    
   17.4500008      -1.88517606    
   17.5000000      -1.94713056    
   17.5499992      -2.01033425    
   17.6000004      -2.07479715    
   17.6499996      -2.14052796    
   17.7000008      -2.20753002    
   17.7500000      -2.27580166    
   17.7999992      -2.34533477    
   17.8500004      -2.41611671    
   17.8999996      -2.48813295    
   17.9500008      -2.56136608    
   18.0000000      -2.63579655    
   18.0499992      -2.71140146    
   18.1000004      -2.78815436    
   18.1499996      -2.86602640    
   18.2000008      -2.94499016    
   18.2500000      -3.02502179    
   18.2999992      -3.10610580    
   18.3500004      -3.18823600    
   18.3999996      -3.27141285    
   18.4500008      -3.35563707    
   18.5000000      -3.44090366    
   18.5499992      -3.52719402    
   18.6000004      -3.61447287    
   18.6499996      -3.70269179    
   18.7000008      -3.79179573    
   18.7500000      -3.88173270    
   18.7999992      -3.97246242    
   18.8500004      -4.06396294    
   18.8999996      -4.15622759    
   18.9500008      -4.24925709    
   19.0000000      -4.34304905    
   19.0499992      -4.43758821    
   19.1000004      -4.53283882    
   19.1499996      -4.62874603    
   19.2000008      -4.72524500    
   19.2500000      -4.82227278    
   19.2999992      -4.91977978    
   19.3500004      -5.01773500    
   19.3999996      -5.11612797    
   19.4500008      -5.21495771    
   19.5000000      -5.31421947    
   19.5499992      -5.41389608    
   19.6000004      -5.51395035    
   19.6499996      -5.61432695    
   19.7000008      -5.71496248    
   19.7500000      -5.81580114    
   19.7999992      -5.91680479    
   19.8500004      -6.01795721    
   19.8999996      -6.11926126    
   19.9500008      -6.22072411    
   20.0000000      -6.32234430    
   20.0499992      -6.42409563    
   20.1000004      -6.52592611    
   20.1499996      -6.62776279    
   20.2000008      -6.72952843    
   20.2500000      -6.83116102    
   20.2999992      -6.93262815    
   20.3500004      -7.03393459    
   20.3999996      -7.13511133    
   20.4500008      -7.23619890    
   20.5000000      -7.33722496    
   20.5499992      -7.43818378    
   20.6000004      -7.53903103    
   20.6499996      -7.63968801    
   20.7000008      -7.74006414    
   20.7500000      -7.84008074    
   20.7999992      -7.93969154    
   20.8500004      -8.03889370    
   20.8999996      -8.13772106    
   20.9500008      -8.23622894    
   21.0000000      -8.33446693    
   21.0499992      -8.43245983    
   21.1000004      -8.53019142    
   21.1499996      -8.62761307    
   21.2000008      -8.72465324    
   21.2500000      -8.82124996    
   21.2999992      -8.91736221    
   21.3500004      -9.01298523    
   21.3999996      -9.10815239    
   21.4500008      -9.20291328    
   21.5000000      -9.29731655    
   21.5499992      -9.39138985    
   21.6000004      -9.48513126    
   21.6499996      -9.57850552    
   21.7000008      -9.67146492    
   21.7500000      -9.76395893    
   21.7999992      -9.85595798    
   21.8500004      -9.94745731    
   21.8999996      -10.0384779    
   21.9500008      -10.1290550    
   22.0000000      -10.2192240    
   22.0499992      -10.3090076    
   22.1000004      -10.3984146    
   22.1499996      -10.4874392    
   22.2000008      -10.5760727    
   22.2500000      -10.6643152    
   22.2999992      -10.7521763    
   22.3500004      -10.8396807    
   22.3999996      -10.9268560    
   22.4500008      -11.0137234    
   22.5000000      -11.1002855    
   22.5499992      -11.1865282    
   22.6000004      -11.2724247    
   22.6499996      -11.3579493    
   22.7000008      -11.4430962    
   22.7500000      -11.5278845    
   22.7999992      -11.6123590    
   22.8500004      -11.6965809    
   22.8999996      -11.7806063    
   22.9500008      -11.8644695    
   23.0000000      -11.9481668    
   23.0499992      -12.0316620    
   23.1000004      -12.1148968    
   23.1499996      -12.1978178    
   23.2000008      -12.2803936    
   23.2500000      -12.3626404    
   23.2999992      -12.4446182    
   23.3500004      -12.5264149    
   23.3999996      -12.6081276    
   23.4500008      -12.6898251    
   23.5000000      -12.7715349    
   23.5499992      -12.8532372    
   23.6000004      -12.9348736    
   23.6499996      -13.0163746    
   23.7000008      -13.0976830    
   23.7500000      -13.1787806    
   23.7999992      -13.2596970    
   23.8500004      -13.3404980    
   23.8999996      -13.4212646    
   23.9500008      -13.5020666    
   24.0000000      -13.5829391    
   24.0499992      -13.6638718    
   24.1000004      -13.7448215    
   24.1499996      -13.8257265    
   24.2000008      -13.9065332    
   24.2500000      -13.9872227    
   24.2999992      -14.0678129    
   24.3500004      -14.1483603    
   24.3999996      -14.2289371    
   24.4500008      -14.3096085    
   24.5000000      -14.3904152    
   24.5499992      -14.4713564    
   24.6000004      -14.5523987    
   24.6499996      -14.6334877    
   24.7000008      -14.7145767    
   24.7500000      -14.7956429    
   24.7999992      -14.8766985    
   24.8500004      -14.9577923    
   24.8999996      -15.0389872    
   24.9500008      -15.1203442    
   25.0000000      -15.2019024    
   25.0499992      -15.2836599    
   25.1000004      -15.3655796    
   25.1499996      -15.4476080    
   25.2000008      -15.5296841    
   25.2500000      -15.6117716    
   25.2999992      -15.6938648    
   25.3500004      -15.7759991    
   25.3999996      -15.8582268    
   25.4500008      -15.9406090    
   25.5000000      -16.0231934    
   25.5499992      -16.1059933    
   25.6000004      -16.1889954    
   25.6499996      -16.2721539    
   25.7000008      -16.3554268    
   25.7500000      -16.4387798    
   25.7999992      -16.5222149    
   25.8500004      -16.6057587    
   25.8999996      -16.6894569    
   25.9500008      -16.7733593    
   26.0000000      -16.8574982    
   26.0499992      -16.9418755    
   26.1000004      -17.0264587    
   26.1499996      -17.1111832    
   26.2000008      -17.1959934    
   26.2500000      -17.2808456    
   26.2999992      -17.3657265    
   26.3500004      -17.4506702    
   26.3999996      -17.5357342    
   26.4500008      -17.6209736    
   26.5000000      -17.7064304    
   26.5499992      -17.7921066    
   26.6000004      -17.8779640    
   26.6499996      -17.9639263    
   26.7000008      -18.0499191    
   26.7500000      -18.1358852    
   26.7999992      -18.2218018    
   26.8500004      -18.3076973    
   26.8999996      -18.3936272    
   26.9500008      -18.4796600    
   27.0000000      -18.5658302    
   27.0499992      -18.6521320    
   27.1000004      -18.7385101    
   27.1499996      -18.8248672    
   27.2000008      -18.9111061    
   27.2500000      -18.9971542    
   27.2999992      -19.0829887    
   27.3500004      -19.1686440    
   27.3999996      -19.2541885    
   27.4500008      -19.3396912    
   27.5000000      -19.4251728    
   27.5499992      -19.5105953    
   27.6000004      -19.5958405    
   27.6499996      -19.6807518    
   27.7000008      -19.7651577    
   27.7500000      -19.8489399    
   27.7999992      -19.9320488    
   27.8500004      -20.0145168    
   27.8999996      -20.0964317    
   27.9500008      -20.1778831    
   28.0000000      -20.2589207    
   28.0499992      -20.3395023    
   28.1000004      -20.4194965    
   28.1499996      -20.4987011    
   28.2000008      -20.5769024    
   28.2500000      -20.6539116    
   28.2999992      -20.7296257    
   28.3500004      -20.8040142    
   28.3999996      -20.8771019    
   28.4500008      -20.9489117    
   28.5000000      -21.0194149    
   28.5499992      -21.0884933    
   28.6000004      -21.1559410    
   28.6499996      -21.2214947    
   28.7000008      -21.2848911    
   28.7500000      -21.3459263    
   28.7999992      -21.4044743    
   28.8500004      -21.4605007    
   28.8999996      -21.5140057    
   28.9500008      -21.5649624    
   29.0000000      -21.6132603    
   29.0499992      -21.6586704    
   29.1000004      -21.7008591    
   29.1499996      -21.7394428    
   29.2000008      -21.7740555    
   29.2500000      -21.8044205    
   29.2999992      -21.8303642    
   29.3500004      -21.8518162    
   29.3999996      -21.8687344    
   29.4500008      -21.8810291    
   29.5000000      -21.8885040    
   29.5499992      -21.8908100    
   29.6000004      -21.8874836    
   29.6499996      -21.8780117    
   29.7000008      -21.8619137    
   29.7500000      -21.8388138    
   29.7999992      -21.8084736    
   29.8500004      -21.7707558    
   29.8999996      -21.7255535    
   29.9500008      -21.6726952    
   30.0000000      -21.6118679    
   30.0499992      -21.5426006    
   30.1000004      -21.4642982    
   30.1499996      -21.3763256    
   30.2000008      -21.2781181    
   30.2500000      -21.1692467    
   30.2999992      -21.0494385    
   30.3500004      -20.9185390    
   30.3999996      -20.7764091    
   30.4500008      -20.6228123    
   30.5000000      -20.4573517    
   30.5499992      -20.2794380    
   30.6000004      -20.0883579    
   30.6499996      -19.8833828    
   30.7000008      -19.6638737    
   30.7500000      -19.4293804    
   30.7999992      -19.1796417    
   30.8500004      -18.9145298    
   30.8999996      -18.6339321    
   30.9500008      -18.3376312    
   31.0000000      -18.0252190    
   31.0499992      -17.6960831    
   31.1000004      -17.3494854    
   31.1499996      -16.9846821    
   31.2000008      -16.6010437    
   31.2500000      -16.1981640    
   31.2999992      -15.7758532    
   31.3500004      -15.3340778    
   31.3999996      -14.8728285    
   31.4500008      -14.3919926    
   31.5000000      -13.8912678    
   31.5499992      -13.3701620    
   31.6000004      -12.8280649    
   31.6499996      -12.2643852    
   31.7000008      -11.6786804    
   31.7500000      -11.0707417    
   31.7999992      -10.4405956    
   31.8500004      -9.78842258    
   31.8999996      -9.11441994    
   31.9500008      -8.41868114    
   32.0000000      -7.70111275    
   32.0499992      -6.96144962    
   32.0999985      -6.19934702    
   32.1500015      -5.41452026    
   32.2000008      -4.60687256    
   32.2500000      -3.77656817    
   32.2999992      -2.92401600    
   32.3499985      -2.04976869    
   32.4000015      -1.15437984    
   32.4500008     -0.238278955    
   32.5000000      0.698294461    
   32.5499992       1.65526247    
   32.5999985       2.63259840    
   32.6500015       3.63018322    
   32.7000008       4.64767313    
   32.7500000       5.68444443    
   32.7999992       6.73962641    